Automatically generated mesh
     182
Reciprocal lattice
    0.00000000000000    0.00000000000000    0.00000000000000             1
    0.16666666666667    0.00000000000000    0.00000000000000             2
    0.33333333333333    0.00000000000000    0.00000000000000             2
    0.50000000000000    0.00000000000000    0.00000000000000             1
    0.00000000000000    0.08333333333333    0.00000000000000             2
    0.16666666666667    0.08333333333333    0.00000000000000             4
    0.33333333333333    0.08333333333333    0.00000000000000             4
    0.50000000000000    0.08333333333333    0.00000000000000             2
    0.00000000000000    0.16666666666667    0.00000000000000             2
    0.16666666666667    0.16666666666667    0.00000000000000             4
    0.33333333333333    0.16666666666667    0.00000000000000             4
    0.50000000000000    0.16666666666667    0.00000000000000             2
    0.00000000000000    0.25000000000000    0.00000000000000             2
    0.16666666666667    0.25000000000000    0.00000000000000             4
    0.33333333333333    0.25000000000000    0.00000000000000             4
    0.50000000000000    0.25000000000000    0.00000000000000             2
    0.00000000000000    0.33333333333333    0.00000000000000             2
    0.16666666666667    0.33333333333333    0.00000000000000             4
    0.33333333333333    0.33333333333333    0.00000000000000             4
    0.50000000000000    0.33333333333333    0.00000000000000             2
    0.00000000000000    0.41666666666667    0.00000000000000             2
    0.16666666666667    0.41666666666667    0.00000000000000             4
    0.33333333333333    0.41666666666667    0.00000000000000             4
    0.50000000000000    0.41666666666667    0.00000000000000             2
    0.00000000000000    0.50000000000000    0.00000000000000             1
    0.16666666666667    0.50000000000000    0.00000000000000             2
    0.33333333333333    0.50000000000000    0.00000000000000             2
    0.50000000000000    0.50000000000000    0.00000000000000             1
    0.00000000000000    0.00000000000000    0.12500000000000             2
    0.16666666666667    0.00000000000000    0.12500000000000             2
    0.33333333333333    0.00000000000000    0.12500000000000             2
    0.50000000000000    0.00000000000000    0.12500000000000             2
   -0.33333333333333    0.00000000000000    0.12500000000000             2
   -0.16666666666667    0.00000000000000    0.12500000000000             2
    0.00000000000000    0.08333333333333    0.12500000000000             4
    0.16666666666667    0.08333333333333    0.12500000000000             4
    0.33333333333333    0.08333333333333    0.12500000000000             4
    0.50000000000000    0.08333333333333    0.12500000000000             4
   -0.33333333333333    0.08333333333333    0.12500000000000             4
   -0.16666666666667    0.08333333333333    0.12500000000000             4
    0.00000000000000    0.16666666666667    0.12500000000000             4
    0.16666666666667    0.16666666666667    0.12500000000000             4
    0.33333333333333    0.16666666666667    0.12500000000000             4
    0.50000000000000    0.16666666666667    0.12500000000000             4
   -0.33333333333333    0.16666666666667    0.12500000000000             4
   -0.16666666666667    0.16666666666667    0.12500000000000             4
    0.00000000000000    0.25000000000000    0.12500000000000             4
    0.16666666666667    0.25000000000000    0.12500000000000             4
    0.33333333333333    0.25000000000000    0.12500000000000             4
    0.50000000000000    0.25000000000000    0.12500000000000             4
   -0.33333333333333    0.25000000000000    0.12500000000000             4
   -0.16666666666667    0.25000000000000    0.12500000000000             4
    0.00000000000000    0.33333333333333    0.12500000000000             4
    0.16666666666667    0.33333333333333    0.12500000000000             4
    0.33333333333333    0.33333333333333    0.12500000000000             4
    0.50000000000000    0.33333333333333    0.12500000000000             4
   -0.33333333333333    0.33333333333333    0.12500000000000             4
   -0.16666666666667    0.33333333333333    0.12500000000000             4
    0.00000000000000    0.41666666666667    0.12500000000000             4
    0.16666666666667    0.41666666666667    0.12500000000000             4
    0.33333333333333    0.41666666666667    0.12500000000000             4
    0.50000000000000    0.41666666666667    0.12500000000000             4
   -0.33333333333333    0.41666666666667    0.12500000000000             4
   -0.16666666666667    0.41666666666667    0.12500000000000             4
    0.00000000000000    0.50000000000000    0.12500000000000             2
    0.16666666666667    0.50000000000000    0.12500000000000             2
    0.33333333333333    0.50000000000000    0.12500000000000             2
    0.50000000000000    0.50000000000000    0.12500000000000             2
   -0.33333333333333    0.50000000000000    0.12500000000000             2
   -0.16666666666667    0.50000000000000    0.12500000000000             2
    0.00000000000000    0.00000000000000    0.25000000000000             2
    0.16666666666667    0.00000000000000    0.25000000000000             2
    0.33333333333333    0.00000000000000    0.25000000000000             2
    0.50000000000000    0.00000000000000    0.25000000000000             2
   -0.33333333333333    0.00000000000000    0.25000000000000             2
   -0.16666666666667    0.00000000000000    0.25000000000000             2
    0.00000000000000    0.08333333333333    0.25000000000000             4
    0.16666666666667    0.08333333333333    0.25000000000000             4
    0.33333333333333    0.08333333333333    0.25000000000000             4
    0.50000000000000    0.08333333333333    0.25000000000000             4
   -0.33333333333333    0.08333333333333    0.25000000000000             4
   -0.16666666666667    0.08333333333333    0.25000000000000             4
    0.00000000000000    0.16666666666667    0.25000000000000             4
    0.16666666666667    0.16666666666667    0.25000000000000             4
    0.33333333333333    0.16666666666667    0.25000000000000             4
    0.50000000000000    0.16666666666667    0.25000000000000             4
   -0.33333333333333    0.16666666666667    0.25000000000000             4
   -0.16666666666667    0.16666666666667    0.25000000000000             4
    0.00000000000000    0.25000000000000    0.25000000000000             4
    0.16666666666667    0.25000000000000    0.25000000000000             4
    0.33333333333333    0.25000000000000    0.25000000000000             4
    0.50000000000000    0.25000000000000    0.25000000000000             4
   -0.33333333333333    0.25000000000000    0.25000000000000             4
   -0.16666666666667    0.25000000000000    0.25000000000000             4
    0.00000000000000    0.33333333333333    0.25000000000000             4
    0.16666666666667    0.33333333333333    0.25000000000000             4
    0.33333333333333    0.33333333333333    0.25000000000000             4
    0.50000000000000    0.33333333333333    0.25000000000000             4
   -0.33333333333333    0.33333333333333    0.25000000000000             4
   -0.16666666666667    0.33333333333333    0.25000000000000             4
    0.00000000000000    0.41666666666667    0.25000000000000             4
    0.16666666666667    0.41666666666667    0.25000000000000             4
    0.33333333333333    0.41666666666667    0.25000000000000             4
    0.50000000000000    0.41666666666667    0.25000000000000             4
   -0.33333333333333    0.41666666666667    0.25000000000000             4
   -0.16666666666667    0.41666666666667    0.25000000000000             4
    0.00000000000000    0.50000000000000    0.25000000000000             2
    0.16666666666667    0.50000000000000    0.25000000000000             2
    0.33333333333333    0.50000000000000    0.25000000000000             2
    0.50000000000000    0.50000000000000    0.25000000000000             2
   -0.33333333333333    0.50000000000000    0.25000000000000             2
   -0.16666666666667    0.50000000000000    0.25000000000000             2
    0.00000000000000    0.00000000000000    0.37500000000000             2
    0.16666666666667    0.00000000000000    0.37500000000000             2
    0.33333333333333    0.00000000000000    0.37500000000000             2
    0.50000000000000    0.00000000000000    0.37500000000000             2
   -0.33333333333333    0.00000000000000    0.37500000000000             2
   -0.16666666666667    0.00000000000000    0.37500000000000             2
    0.00000000000000    0.08333333333333    0.37500000000000             4
    0.16666666666667    0.08333333333333    0.37500000000000             4
    0.33333333333333    0.08333333333333    0.37500000000000             4
    0.50000000000000    0.08333333333333    0.37500000000000             4
   -0.33333333333333    0.08333333333333    0.37500000000000             4
   -0.16666666666667    0.08333333333333    0.37500000000000             4
    0.00000000000000    0.16666666666667    0.37500000000000             4
    0.16666666666667    0.16666666666667    0.37500000000000             4
    0.33333333333333    0.16666666666667    0.37500000000000             4
    0.50000000000000    0.16666666666667    0.37500000000000             4
   -0.33333333333333    0.16666666666667    0.37500000000000             4
   -0.16666666666667    0.16666666666667    0.37500000000000             4
    0.00000000000000    0.25000000000000    0.37500000000000             4
    0.16666666666667    0.25000000000000    0.37500000000000             4
    0.33333333333333    0.25000000000000    0.37500000000000             4
    0.50000000000000    0.25000000000000    0.37500000000000             4
   -0.33333333333333    0.25000000000000    0.37500000000000             4
   -0.16666666666667    0.25000000000000    0.37500000000000             4
    0.00000000000000    0.33333333333333    0.37500000000000             4
    0.16666666666667    0.33333333333333    0.37500000000000             4
    0.33333333333333    0.33333333333333    0.37500000000000             4
    0.50000000000000    0.33333333333333    0.37500000000000             4
   -0.33333333333333    0.33333333333333    0.37500000000000             4
   -0.16666666666667    0.33333333333333    0.37500000000000             4
    0.00000000000000    0.41666666666667    0.37500000000000             4
    0.16666666666667    0.41666666666667    0.37500000000000             4
    0.33333333333333    0.41666666666667    0.37500000000000             4
    0.50000000000000    0.41666666666667    0.37500000000000             4
   -0.33333333333333    0.41666666666667    0.37500000000000             4
   -0.16666666666667    0.41666666666667    0.37500000000000             4
    0.00000000000000    0.50000000000000    0.37500000000000             2
    0.16666666666667    0.50000000000000    0.37500000000000             2
    0.33333333333333    0.50000000000000    0.37500000000000             2
    0.50000000000000    0.50000000000000    0.37500000000000             2
   -0.33333333333333    0.50000000000000    0.37500000000000             2
   -0.16666666666667    0.50000000000000    0.37500000000000             2
    0.00000000000000    0.00000000000000    0.50000000000000             1
    0.16666666666667    0.00000000000000    0.50000000000000             2
    0.33333333333333    0.00000000000000    0.50000000000000             2
    0.50000000000000    0.00000000000000    0.50000000000000             1
    0.00000000000000    0.08333333333333    0.50000000000000             2
    0.16666666666667    0.08333333333333    0.50000000000000             4
    0.33333333333333    0.08333333333333    0.50000000000000             4
    0.50000000000000    0.08333333333333    0.50000000000000             2
    0.00000000000000    0.16666666666667    0.50000000000000             2
    0.16666666666667    0.16666666666667    0.50000000000000             4
    0.33333333333333    0.16666666666667    0.50000000000000             4
    0.50000000000000    0.16666666666667    0.50000000000000             2
    0.00000000000000    0.25000000000000    0.50000000000000             2
    0.16666666666667    0.25000000000000    0.50000000000000             4
    0.33333333333333    0.25000000000000    0.50000000000000             4
    0.50000000000000    0.25000000000000    0.50000000000000             2
    0.00000000000000    0.33333333333333    0.50000000000000             2
    0.16666666666667    0.33333333333333    0.50000000000000             4
    0.33333333333333    0.33333333333333    0.50000000000000             4
    0.50000000000000    0.33333333333333    0.50000000000000             2
    0.00000000000000    0.41666666666667    0.50000000000000             2
    0.16666666666667    0.41666666666667    0.50000000000000             4
    0.33333333333333    0.41666666666667    0.50000000000000             4
    0.50000000000000    0.41666666666667    0.50000000000000             2
    0.00000000000000    0.50000000000000    0.50000000000000             1
    0.16666666666667    0.50000000000000    0.50000000000000             2
    0.33333333333333    0.50000000000000    0.50000000000000             2
    0.50000000000000    0.50000000000000    0.50000000000000             1
Tetrahedra
      1728    0.00028935185185
         2         1         2         6        29
         2         1         5         6        29
         2         5         6        29        35
         2         2         6        29        30
         2         6        29        30        36
         2         6        29        35        36
         2         2         3         7        30
         2         2         6         7        30
         2         6         7        30        36
         2         3         7        30        31
         2         7        30        31        37
         2         7        30        36        37
         2         3         4         8        31
         2         3         7         8        31
         2         7         8        31        37
         2         4         8        31        32
         2         8        31        32        38
         2         8        31        37        38
         2         3         4         7        32
         2         4         7         8        32
         2         7         8        32        38
         2         3         7        32        33
         2         7        32        33        39
         2         7        32        38        39
         2         2         3         6        33
         2         3         6         7        33
         2         6         7        33        39
         2         2         6        33        34
         2         6        33        34        40
         2         6        33        39        40
         2         1         2         5        34
         2         2         5         6        34
         2         5         6        34        40
         2         1         5        29        34
         2         5        29        34        35
         2         5        34        35        40
         2         5         6        10        35
         2         5         9        10        35
         2         9        10        35        41
         2         6        10        35        36
         2        10        35        36        42
         2        10        35        41        42
         2         6         7        11        36
         2         6        10        11        36
         2        10        11        36        42
         2         7        11        36        37
         2        11        36        37        43
         2        11        36        42        43
         2         7         8        12        37
         2         7        11        12        37
         2        11        12        37        43
         2         8        12        37        38
         2        12        37        38        44
         2        12        37        43        44
         2         7         8        11        38
         2         8        11        12        38
         2        11        12        38        44
         2         7        11        38        39
         2        11        38        39        45
         2        11        38        44        45
         2         6         7        10        39
         2         7        10        11        39
         2        10        11        39        45
         2         6        10        39        40
         2        10        39        40        46
         2        10        39        45        46
         2         5         6         9        40
         2         6         9        10        40
         2         9        10        40        46
         2         5         9        35        40
         2         9        35        40        41
         2         9        40        41        46
         2         9        10        14        41
         2         9        13        14        41
         2        13        14        41        47
         2        10        14        41        42
         2        14        41        42        48
         2        14        41        47        48
         2        10        11        15        42
         2        10        14        15        42
         2        14        15        42        48
         2        11        15        42        43
         2        15        42        43        49
         2        15        42        48        49
         2        11        12        16        43
         2        11        15        16        43
         2        15        16        43        49
         2        12        16        43        44
         2        16        43        44        50
         2        16        43        49        50
         2        11        12        15        44
         2        12        15        16        44
         2        15        16        44        50
         2        11        15        44        45
         2        15        44        45        51
         2        15        44        50        51
         2        10        11        14        45
         2        11        14        15        45
         2        14        15        45        51
         2        10        14        45        46
         2        14        45        46        52
         2        14        45        51        52
         2         9        10        13        46
         2        10        13        14        46
         2        13        14        46        52
         2         9        13        41        46
         2        13        41        46        47
         2        13        46        47        52
         2        13        14        18        47
         2        13        17        18        47
         2        17        18        47        53
         2        14        18        47        48
         2        18        47        48        54
         2        18        47        53        54
         2        14        15        19        48
         2        14        18        19        48
         2        18        19        48        54
         2        15        19        48        49
         2        19        48        49        55
         2        19        48        54        55
         2        15        16        20        49
         2        15        19        20        49
         2        19        20        49        55
         2        16        20        49        50
         2        20        49        50        56
         2        20        49        55        56
         2        15        16        19        50
         2        16        19        20        50
         2        19        20        50        56
         2        15        19        50        51
         2        19        50        51        57
         2        19        50        56        57
         2        14        15        18        51
         2        15        18        19        51
         2        18        19        51        57
         2        14        18        51        52
         2        18        51        52        58
         2        18        51        57        58
         2        13        14        17        52
         2        14        17        18        52
         2        17        18        52        58
         2        13        17        47        52
         2        17        47        52        53
         2        17        52        53        58
         2        17        18        22        53
         2        17        21        22        53
         2        21        22        53        59
         2        18        22        53        54
         2        22        53        54        60
         2        22        53        59        60
         2        18        19        23        54
         2        18        22        23        54
         2        22        23        54        60
         2        19        23        54        55
         2        23        54        55        61
         2        23        54        60        61
         2        19        20        24        55
         2        19        23        24        55
         2        23        24        55        61
         2        20        24        55        56
         2        24        55        56        62
         2        24        55        61        62
         2        19        20        23        56
         2        20        23        24        56
         2        23        24        56        62
         2        19        23        56        57
         2        23        56        57        63
         2        23        56        62        63
         2        18        19        22        57
         2        19        22        23        57
         2        22        23        57        63
         2        18        22        57        58
         2        22        57        58        64
         2        22        57        63        64
         2        17        18        21        58
         2        18        21        22        58
         2        21        22        58        64
         2        17        21        53        58
         2        21        53        58        59
         2        21        58        59        64
         2        21        22        26        59
         2        21        25        26        59
         2        25        26        59        65
         2        22        26        59        60
         2        26        59        60        66
         2        26        59        65        66
         2        22        23        27        60
         2        22        26        27        60
         2        26        27        60        66
         2        23        27        60        61
         2        27        60        61        67
         2        27        60        66        67
         2        23        24        28        61
         2        23        27        28        61
         2        27        28        61        67
         2        24        28        61        62
         2        28        61        62        68
         2        28        61        67        68
         2        23        24        27        62
         2        24        27        28        62
         2        27        28        62        68
         2        23        27        62        63
         2        27        62        63        69
         2        27        62        68        69
         2        22        23        26        63
         2        23        26        27        63
         2        26        27        63        69
         2        22        26        63        64
         2        26        63        64        70
         2        26        63        69        70
         2        21        22        25        64
         2        22        25        26        64
         2        25        26        64        70
         2        21        25        59        64
         2        25        59        64        65
         2        25        64        65        70
         2        22        25        26        65
         2        21        22        25        65
         2        21        22        59        65
         2        22        26        65        66
         2        22        60        65        66
         2        22        59        60        65
         2        23        26        27        66
         2        22        23        26        66
         2        22        23        60        66
         2        23        27        66        67
         2        23        61        66        67
         2        23        60        61        66
         2        24        27        28        67
         2        23        24        27        67
         2        23        24        61        67
         2        24        28        67        68
         2        24        62        67        68
         2        24        61        62        67
         2        23        27        28        68
         2        23        24        28        68
         2        23        24        62        68
         2        23        27        68        69
         2        23        63        68        69
         2        23        62        63        68
         2        22        26        27        69
         2        22        23        27        69
         2        22        23        63        69
         2        22        26        69        70
         2        22        64        69        70
         2        22        63        64        69
         2        21        25        26        70
         2        21        22        26        70
         2        21        22        64        70
         2        21        25        65        70
         2        21        59        65        70
         2        21        59        64        70
         2        18        21        22        59
         2        17        18        21        59
         2        17        18        53        59
         2        18        22        59        60
         2        18        54        59        60
         2        18        53        54        59
         2        19        22        23        60
         2        18        19        22        60
         2        18        19        54        60
         2        19        23        60        61
         2        19        55        60        61
         2        19        54        55        60
         2        20        23        24        61
         2        19        20        23        61
         2        19        20        55        61
         2        20        24        61        62
         2        20        56        61        62
         2        20        55        56        61
         2        19        23        24        62
         2        19        20        24        62
         2        19        20        56        62
         2        19        23        62        63
         2        19        57        62        63
         2        19        56        57        62
         2        18        22        23        63
         2        18        19        23        63
         2        18        19        57        63
         2        18        22        63        64
         2        18        58        63        64
         2        18        57        58        63
         2        17        21        22        64
         2        17        18        22        64
         2        17        18        58        64
         2        17        21        59        64
         2        17        53        59        64
         2        17        53        58        64
         2        14        17        18        53
         2        13        14        17        53
         2        13        14        47        53
         2        14        18        53        54
         2        14        48        53        54
         2        14        47        48        53
         2        15        18        19        54
         2        14        15        18        54
         2        14        15        48        54
         2        15        19        54        55
         2        15        49        54        55
         2        15        48        49        54
         2        16        19        20        55
         2        15        16        19        55
         2        15        16        49        55
         2        16        20        55        56
         2        16        50        55        56
         2        16        49        50        55
         2        15        19        20        56
         2        15        16        20        56
         2        15        16        50        56
         2        15        19        56        57
         2        15        51        56        57
         2        15        50        51        56
         2        14        18        19        57
         2        14        15        19        57
         2        14        15        51        57
         2        14        18        57        58
         2        14        52        57        58
         2        14        51        52        57