       N       E                     dE             d eps       ncg     rms          rms(c)
DAV:   1     0.208117727410E+04    0.20812E+04   -0.87888E+04 99016   0.121E+03
DAV:   2     0.297640050878E+02   -0.20514E+04   -0.19205E+04103240   0.397E+02
DAV:   3    -0.233600473056E+03   -0.26336E+03   -0.25098E+03119544   0.152E+02
DAV:   4    -0.244914702030E+03   -0.11314E+02   -0.11163E+02123376   0.332E+01
DAV:   5    -0.245242226239E+03   -0.32752E+00   -0.32687E+00130552   0.515E+00    0.107E+02
RMM:   6    -0.210608541356E+03    0.34634E+02   -0.18687E+02100011   0.354E+01    0.548E+01
RMM:   7    -0.207463166096E+03    0.31454E+01   -0.19509E+01101071   0.130E+01    0.338E+01
RMM:   8    -0.215632265583E+03   -0.81691E+01   -0.11687E+01107017   0.983E+00    0.346E+01
RMM:   9    -0.207911897127E+03    0.77204E+01   -0.72346E+00103612   0.720E+00    0.185E+01
RMM:  10    -0.204358434451E+03    0.35535E+01   -0.20179E+00103198   0.407E+00    0.704E+00
RMM:  11    -0.204775222781E+03   -0.41679E+00   -0.41534E-01108387   0.171E+00    0.402E+00
RMM:  12    -0.205092670877E+03   -0.31745E+00   -0.16025E-01107215   0.105E+00    0.182E+00
RMM:  13    -0.205598848601E+03   -0.50618E+00   -0.14588E-01105469   0.807E-01    0.140E+00
RMM:  14    -0.206152647084E+03   -0.55380E+00   -0.26554E-01102082   0.941E-01    0.754E-01
RMM:  15    -0.206237572998E+03   -0.84926E-01   -0.52317E-02111038   0.347E-01    0.574E-01
RMM:  16    -0.206262328342E+03   -0.24755E-01   -0.13017E-02108664   0.204E-01    0.348E-01
RMM:  17    -0.206278565857E+03   -0.16238E-01   -0.11265E-02104066   0.201E-01    0.192E-01
RMM:  18    -0.206280716664E+03   -0.21508E-02   -0.18957E-03115994   0.759E-02    0.156E-01
RMM:  19    -0.206281236600E+03   -0.51994E-03   -0.55503E-04110192   0.629E-02    0.114E-01
RMM:  20    -0.206281680271E+03   -0.44367E-03   -0.29959E-04108984   0.480E-02    0.802E-02
RMM:  21    -0.206281905180E+03   -0.22491E-03   -0.95151E-05114832   0.282E-02    0.672E-02
RMM:  22    -0.206282103671E+03   -0.19849E-03   -0.16865E-04103567   0.368E-02    0.485E-02
RMM:  23    -0.206282229081E+03   -0.12541E-03   -0.24503E-04102446   0.461E-02    0.299E-02
RMM:  24    -0.206282260456E+03   -0.31375E-04   -0.26504E-05105975   0.205E-02    0.210E-02
RMM:  25    -0.206282300610E+03   -0.40154E-04   -0.14769E-04103346   0.345E-02    0.196E-02
RMM:  26    -0.206282316570E+03   -0.15960E-04   -0.14293E-05112169   0.146E-02    0.121E-02
RMM:  27    -0.206282319073E+03   -0.25034E-05   -0.10597E-05112148   0.842E-03    0.736E-03
RMM:  28    -0.206282323367E+03   -0.42943E-05   -0.65825E-06109706   0.751E-03    0.330E-03
RMM:  29    -0.206282323557E+03   -0.18948E-06   -0.60266E-07 87497   0.309E-03    0.242E-03
RMM:  30    -0.206282324298E+03   -0.74100E-06   -0.80352E-07 98331   0.244E-03    0.844E-03
RMM:  31    -0.206282324429E+03   -0.13169E-06   -0.80527E-08 58071   0.125E-03    0.809E-03
RMM:  32    -0.206282324570E+03   -0.14086E-06   -0.61489E-08 56247   0.759E-04    0.802E-03
RMM:  33    -0.206282324549E+03    0.21671E-07   -0.14396E-08 53917   0.473E-04
   1 F= -.20628232E+03 E0= -.20628232E+03  d E =0.000000E+00  mag=     0.0114
