unknown system                          
           1
    13.637910    0.000000   -0.760828
     0.000000    3.106561    0.000000
    -0.109617    0.000000    9.888034
   Ir   O 
  10  20
Direct configuration=     1
   0.00000000  0.50000000  0.00000000
   0.50000000  0.00000000  0.00000000
   0.00462783  0.00000000  0.26680971
   0.50462783  0.50000000  0.26680971
   0.99537217  0.00000000  0.73319029
   0.49537217  0.50000000  0.73319029
   0.34331702  0.00000000  0.47811949
   0.84331702  0.50000000  0.47811949
   0.65668298  0.00000000  0.52188051
   0.15668298  0.50000000  0.52188051
   0.57469696  0.00000000  0.18481109
   0.07469696  0.50000000  0.18481109
   0.42530304  0.00000000  0.81518891
   0.92530304  0.50000000  0.81518891
   0.09085652  0.00000000  0.43176997
   0.59085652  0.50000000  0.43176997
   0.90914348  0.00000000  0.56823003
   0.40914348  0.50000000  0.56823003
   0.76563415  0.00000000  0.39391114
   0.26563415  0.50000000  0.39391114
   0.23436585  0.00000000  0.60608886
   0.73436585  0.50000000  0.60608886
   0.43333898  0.00000000  0.33450197
   0.93333898  0.50000000  0.33450197
   0.56666102  0.00000000  0.66549803
   0.06666102  0.50000000  0.66549803
   0.93210147  0.00000000  0.08612963
   0.43210147  0.50000000  0.08612963
   0.06789853  0.00000000  0.91387037
   0.56789853  0.50000000  0.91387037
