Automatically generated mesh
     132
Reciprocal lattice
    0.00000000000000    0.00000000000000    0.00000000000000             1
    0.12500000000000    0.00000000000000    0.00000000000000             2
    0.25000000000000    0.00000000000000    0.00000000000000             2
    0.37500000000000    0.00000000000000    0.00000000000000             2
    0.50000000000000    0.00000000000000    0.00000000000000             1
    0.00000000000000    0.12500000000000    0.00000000000000             2
    0.12500000000000    0.12500000000000    0.00000000000000             2
    0.25000000000000    0.12500000000000    0.00000000000000             2
    0.37500000000000    0.12500000000000    0.00000000000000             2
    0.50000000000000    0.12500000000000    0.00000000000000             2
   -0.37500000000000    0.12500000000000    0.00000000000000             2
   -0.25000000000000    0.12500000000000    0.00000000000000             2
   -0.12500000000000    0.12500000000000    0.00000000000000             2
    0.00000000000000    0.25000000000000    0.00000000000000             2
    0.12500000000000    0.25000000000000    0.00000000000000             2
    0.25000000000000    0.25000000000000    0.00000000000000             2
    0.37500000000000    0.25000000000000    0.00000000000000             2
    0.50000000000000    0.25000000000000    0.00000000000000             2
   -0.37500000000000    0.25000000000000    0.00000000000000             2
   -0.25000000000000    0.25000000000000    0.00000000000000             2
   -0.12500000000000    0.25000000000000    0.00000000000000             2
    0.00000000000000    0.37500000000000    0.00000000000000             2
    0.12500000000000    0.37500000000000    0.00000000000000             2
    0.25000000000000    0.37500000000000    0.00000000000000             2
    0.37500000000000    0.37500000000000    0.00000000000000             2
    0.50000000000000    0.37500000000000    0.00000000000000             2
   -0.37500000000000    0.37500000000000    0.00000000000000             2
   -0.25000000000000    0.37500000000000    0.00000000000000             2
   -0.12500000000000    0.37500000000000    0.00000000000000             2
    0.00000000000000    0.50000000000000    0.00000000000000             1
    0.12500000000000    0.50000000000000    0.00000000000000             2
    0.25000000000000    0.50000000000000    0.00000000000000             2
    0.37500000000000    0.50000000000000    0.00000000000000             2
    0.50000000000000    0.50000000000000    0.00000000000000             1
    0.00000000000000    0.00000000000000    0.25000000000000             2
    0.12500000000000    0.00000000000000    0.25000000000000             2
    0.25000000000000    0.00000000000000    0.25000000000000             2
    0.37500000000000    0.00000000000000    0.25000000000000             2
    0.50000000000000    0.00000000000000    0.25000000000000             2
   -0.37500000000000    0.00000000000000    0.25000000000000             2
   -0.25000000000000    0.00000000000000    0.25000000000000             2
   -0.12500000000000    0.00000000000000    0.25000000000000             2
    0.00000000000000    0.12500000000000    0.25000000000000             2
    0.12500000000000    0.12500000000000    0.25000000000000             2
    0.25000000000000    0.12500000000000    0.25000000000000             2
    0.37500000000000    0.12500000000000    0.25000000000000             2
    0.50000000000000    0.12500000000000    0.25000000000000             2
   -0.37500000000000    0.12500000000000    0.25000000000000             2
   -0.25000000000000    0.12500000000000    0.25000000000000             2
   -0.12500000000000    0.12500000000000    0.25000000000000             2
    0.00000000000000    0.25000000000000    0.25000000000000             2
    0.12500000000000    0.25000000000000    0.25000000000000             2
    0.25000000000000    0.25000000000000    0.25000000000000             2
    0.37500000000000    0.25000000000000    0.25000000000000             2
    0.50000000000000    0.25000000000000    0.25000000000000             2
   -0.37500000000000    0.25000000000000    0.25000000000000             2
   -0.25000000000000    0.25000000000000    0.25000000000000             2
   -0.12500000000000    0.25000000000000    0.25000000000000             2
    0.00000000000000    0.37500000000000    0.25000000000000             2
    0.12500000000000    0.37500000000000    0.25000000000000             2
    0.25000000000000    0.37500000000000    0.25000000000000             2
    0.37500000000000    0.37500000000000    0.25000000000000             2
    0.50000000000000    0.37500000000000    0.25000000000000             2
   -0.37500000000000    0.37500000000000    0.25000000000000             2
   -0.25000000000000    0.37500000000000    0.25000000000000             2
   -0.12500000000000    0.37500000000000    0.25000000000000             2
    0.00000000000000    0.50000000000000    0.25000000000000             2
    0.12500000000000    0.50000000000000    0.25000000000000             2
    0.25000000000000    0.50000000000000    0.25000000000000             2
    0.37500000000000    0.50000000000000    0.25000000000000             2
    0.50000000000000    0.50000000000000    0.25000000000000             2
   -0.37500000000000    0.50000000000000    0.25000000000000             2
   -0.25000000000000    0.50000000000000    0.25000000000000             2
   -0.12500000000000    0.50000000000000    0.25000000000000             2
    0.00000000000000   -0.37500000000000    0.25000000000000             2
    0.12500000000000   -0.37500000000000    0.25000000000000             2
    0.25000000000000   -0.37500000000000    0.25000000000000             2
    0.37500000000000   -0.37500000000000    0.25000000000000             2
    0.50000000000000   -0.37500000000000    0.25000000000000             2
   -0.37500000000000   -0.37500000000000    0.25000000000000             2
   -0.25000000000000   -0.37500000000000    0.25000000000000             2
   -0.12500000000000   -0.37500000000000    0.25000000000000             2
    0.00000000000000   -0.25000000000000    0.25000000000000             2
    0.12500000000000   -0.25000000000000    0.25000000000000             2
    0.25000000000000   -0.25000000000000    0.25000000000000             2
    0.37500000000000   -0.25000000000000    0.25000000000000             2
    0.50000000000000   -0.25000000000000    0.25000000000000             2
   -0.37500000000000   -0.25000000000000    0.25000000000000             2
   -0.25000000000000   -0.25000000000000    0.25000000000000             2
   -0.12500000000000   -0.25000000000000    0.25000000000000             2
    0.00000000000000   -0.12500000000000    0.25000000000000             2
    0.12500000000000   -0.12500000000000    0.25000000000000             2
    0.25000000000000   -0.12500000000000    0.25000000000000             2
    0.37500000000000   -0.12500000000000    0.25000000000000             2
    0.50000000000000   -0.12500000000000    0.25000000000000             2
   -0.37500000000000   -0.12500000000000    0.25000000000000             2
   -0.25000000000000   -0.12500000000000    0.25000000000000             2
   -0.12500000000000   -0.12500000000000    0.25000000000000             2
    0.00000000000000    0.00000000000000    0.50000000000000             1
    0.12500000000000    0.00000000000000    0.50000000000000             2
    0.25000000000000    0.00000000000000    0.50000000000000             2
    0.37500000000000    0.00000000000000    0.50000000000000             2
    0.50000000000000    0.00000000000000    0.50000000000000             1
    0.00000000000000    0.12500000000000    0.50000000000000             2
    0.12500000000000    0.12500000000000    0.50000000000000             2
    0.25000000000000    0.12500000000000    0.50000000000000             2
    0.37500000000000    0.12500000000000    0.50000000000000             2
    0.50000000000000    0.12500000000000    0.50000000000000             2
   -0.37500000000000    0.12500000000000    0.50000000000000             2
   -0.25000000000000    0.12500000000000    0.50000000000000             2
   -0.12500000000000    0.12500000000000    0.50000000000000             2
    0.00000000000000    0.25000000000000    0.50000000000000             2
    0.12500000000000    0.25000000000000    0.50000000000000             2
    0.25000000000000    0.25000000000000    0.50000000000000             2
    0.37500000000000    0.25000000000000    0.50000000000000             2
    0.50000000000000    0.25000000000000    0.50000000000000             2
   -0.37500000000000    0.25000000000000    0.50000000000000             2
   -0.25000000000000    0.25000000000000    0.50000000000000             2
   -0.12500000000000    0.25000000000000    0.50000000000000             2
    0.00000000000000    0.37500000000000    0.50000000000000             2
    0.12500000000000    0.37500000000000    0.50000000000000             2
    0.25000000000000    0.37500000000000    0.50000000000000             2
    0.37500000000000    0.37500000000000    0.50000000000000             2
    0.50000000000000    0.37500000000000    0.50000000000000             2
   -0.37500000000000    0.37500000000000    0.50000000000000             2
   -0.25000000000000    0.37500000000000    0.50000000000000             2
   -0.12500000000000    0.37500000000000    0.50000000000000             2
    0.00000000000000    0.50000000000000    0.50000000000000             1
    0.12500000000000    0.50000000000000    0.50000000000000             2
    0.25000000000000    0.50000000000000    0.50000000000000             2
    0.37500000000000    0.50000000000000    0.50000000000000             2
    0.50000000000000    0.50000000000000    0.50000000000000             1
Tetrahedra
       768    0.00065104166667
         2         2         6         7        43
         2         1         2         6        43
         2         1         2        35        43
         2         2         7        43        44
         2         2        36        43        44
         2         2        35        36        43
         2         3         7         8        44
         2         2         3         7        44
         2         2         3        36        44
         2         3         8        44        45
         2         3        37        44        45
         2         3        36        37        44
         2         4         8         9        45
         2         3         4         8        45
         2         3         4        37        45
         2         4         9        45        46
         2         4        38        45        46
         2         4        37        38        45
         2         5         9        10        46
         2         4         5         9        46
         2         4         5        38        46
         2         5        10        46        47
         2         5        39        46        47
         2         5        38        39        46
         2         4        10        11        47
         2         4         5        10        47
         2         4         5        39        47
         2         4        11        47        48
         2         4        40        47        48
         2         4        39        40        47
         2         3        11        12        48
         2         3         4        11        48
         2         3         4        40        48
         2         3        12        48        49
         2         3        41        48        49
         2         3        40        41        48
         2         2        12        13        49
         2         2         3        12        49
         2         2         3        41        49
         2         2        13        49        50
         2         2        42        49        50
         2         2        41        42        49
         2         1         6        13        50
         2         1         2        13        50
         2         1         2        42        50
         2         1         6        43        50
         2         1        35        43        50
         2         1        35        42        50
         2         7        14        15        51
         2         6         7        14        51
         2         6         7        43        51
         2         7        15        51        52
         2         7        44        51        52
         2         7        43        44        51
         2         8        15        16        52
         2         7         8        15        52
         2         7         8        44        52
         2         8        16        52        53
         2         8        45        52        53
         2         8        44        45        52
         2         9        16        17        53
         2         8         9        16        53
         2         8         9        45        53
         2         9        17        53        54
         2         9        46        53        54
         2         9        45        46        53
         2        10        17        18        54
         2         9        10        17        54
         2         9        10        46        54
         2        10        18        54        55
         2        10        47        54        55
         2        10        46        47        54
         2        11        18        19        55
         2        10        11        18        55
         2        10        11        47        55
         2        11        19        55        56
         2        11        48        55        56
         2        11        47        48        55
         2        12        19        20        56
         2        11        12        19        56
         2        11        12        48        56
         2        12        20        56        57
         2        12        49        56        57
         2        12        48        49        56
         2        13        20        21        57
         2        12        13        20        57
         2        12        13        49        57
         2        13        21        57        58
         2        13        50        57        58
         2        13        49        50        57
         2         6        14        21        58
         2         6        13        21        58
         2         6        13        50        58
         2         6        14        51        58
         2         6        43        51        58
         2         6        43        50        58
         2        15        22        23        59
         2        14        15        22        59
         2        14        15        51        59
         2        15        23        59        60
         2        15        52        59        60
         2        15        51        52        59
         2        16        23        24        60
         2        15        16        23        60
         2        15        16        52        60
         2        16        24        60        61
         2        16        53        60        61
         2        16        52        53        60
         2        17        24        25        61
         2        16        17        24        61
         2        16        17        53        61
         2        17        25        61        62
         2        17        54        61        62
         2        17        53        54        61
         2        18        25        26        62
         2        17        18        25        62
         2        17        18        54        62
         2        18        26        62        63
         2        18        55        62        63
         2        18        54        55        62
         2        19        26        27        63
         2        18        19        26        63
         2        18        19        55        63
         2        19        27        63        64
         2        19        56        63        64
         2        19        55        56        63
         2        20        27        28        64
         2        19        20        27        64
         2        19        20        56        64
         2        20        28        64        65
         2        20        57        64        65
         2        20        56        57        64
         2        21        28        29        65
         2        20        21        28        65
         2        20        21        57        65
         2        21        29        65        66
         2        21        58        65        66
         2        21        57        58        65
         2        14        22        29        66
         2        14        21        29        66
         2        14        21        58        66
         2        14        22        59        66
         2        14        51        59        66
         2        14        51        58        66
         2        23        30        31        67
         2        22        23        30        67
         2        22        23        59        67
         2        23        31        67        68
         2        23        60        67        68
         2        23        59        60        67
         2        24        31        32        68
         2        23        24        31        68
         2        23        24        60        68
         2        24        32        68        69
         2        24        61        68        69
         2        24        60        61        68
         2        25        32        33        69
         2        24        25        32        69
         2        24        25        61        69
         2        25        33        69        70
         2        25        62        69        70
         2        25        61        62        69
         2        26        33        34        70
         2        25        26        33        70
         2        25        26        62        70
         2        26        34        70        71
         2        26        63        70        71
         2        26        62        63        70
         2        27        33        34        71
         2        26        27        34        71
         2        26        27        63        71
         2        27        33        71        72
         2        27        64        71        72
         2        27        63        64        71
         2        28        32        33        72
         2        27        28        33        72
         2        27        28        64        72
         2        28        32        72        73
         2        28        65        72        73
         2        28        64        65        72
         2        29        31        32        73
         2        28        29        32        73
         2        28        29        65        73
         2        29        31        73        74
         2        29        66        73        74
         2        29        65        66        73
         2        22        30        31        74
         2        22        29        31        74
         2        22        29        66        74
         2        22        30        67        74
         2        22        59        67        74
         2        22        59        66        74
         2        22        29        31        75
         2        22        30        31        75
         2        30        31        67        75
         2        29        31        75        76
         2        31        68        75        76
         2        31        67        68        75
         2        28        29        32        76
         2        29        31        32        76
         2        31        32        68        76
         2        28        32        76        77
         2        32        69        76        77
         2        32        68        69        76
         2        27        28        33        77
         2        28        32        33        77
         2        32        33        69        77
         2        27        33        77        78
         2        33        70        77        78
         2        33        69        70        77
         2        26        27        34        78
         2        27        33        34        78
         2        33        34        70        78
         2        26        34        78        79
         2        34        71        78        79
         2        34        70        71        78
         2        25        26        33        79
         2        26        33        34        79
         2        33        34        71        79
         2        25        33        79        80
         2        33        72        79        80
         2        33        71        72        79
         2        24        25        32        80
         2        25        32        33        80
         2        32        33        72        80
         2        24        32        80        81
         2        32        73        80        81
         2        32        72        73        80
         2        23        24        31        81
         2        24        31        32        81
         2        31        32        73        81
         2        23        31        81        82
         2        31        74        81        82
         2        31        73        74        81
         2        22        23        30        82
         2        23        30        31        82
         2        30        31        74        82
         2        22        30        75        82
         2        30        67        75        82
         2        30        67        74        82
         2        14        21        29        83
         2        14        22        29        83
         2        22        29        75        83
         2        21        29        83        84
         2        29        76        83        84
         2        29        75        76        83
         2        20        21        28        84
         2        21        28        29        84
         2        28        29        76        84
         2        20        28        84        85
         2        28        77        84        85
         2        28        76        77        84
         2        19        20        27        85
         2        20        27        28        85
         2        27        28        77        85
         2        19        27        85        86
         2        27        78        85        86
         2        27        77        78        85
         2        18        19        26        86
         2        19        26        27        86
         2        26        27        78        86
         2        18        26        86        87
         2        26        79        86        87
         2        26        78        79        86
         2        17        18        25        87
         2        18        25        26        87
         2        25        26        79        87
         2        17        25        87        88
         2        25        80        87        88
         2        25        79        80        87
         2        16        17        24        88
         2        17        24        25        88
         2        24        25        80        88
         2        16        24        88        89
         2        24        81        88        89
         2        24        80        81        88
         2        15        16        23        89
         2        16        23        24        89
         2        23        24        81        89
         2        15        23        89        90
         2        23        82        89        90
         2        23        81        82        89
         2        14        15        22        90
         2        15        22        23        90
         2        22        23        82        90
         2        14        22        83        90
         2        22        75        83        90
         2        22        75        82        90
         2         6        13        21        91
         2         6        14        21        91
         2        14        21        83        91
         2        13        21        91        92
         2        21        84        91        92
         2        21        83        84        91
         2        12        13        20        92
         2        13        20        21        92
         2        20        21        84        92
         2        12        20        92        93
         2        20        85        92        93
         2        20        84        85        92
         2        11        12        19        93
         2        12        19        20        93
         2        19        20        85        93
         2        11        19        93        94
         2        19        86        93        94
         2        19        85        86        93
         2        10        11        18        94
         2        11        18        19        94
         2        18        19        86        94
         2        10        18        94        95
         2        18        87        94        95
         2        18        86        87        94
         2         9        10        17        95
         2        10        17        18        95
         2        17        18        87        95
         2         9        17        95        96
         2        17        88        95        96
         2        17        87        88        95
         2         8         9        16        96
         2         9        16        17        96
         2        16        17        88        96
         2         8        16        96        97
         2        16        89        96        97
         2        16        88        89        96
         2         7         8        15        97
         2         8        15        16        97
         2        15        16        89        97
         2         7        15        97        98
         2        15        90        97        98
         2        15        89        90        97
         2         6         7        14        98
         2         7        14        15        98
         2        14        15        90        98
         2         6        14        91        98
         2        14        83        91        98
         2        14        83        90        98
         2         1         2        13        35
         2         1         6        13        35
         2         6        13        35        91
         2         2        13        35        36
         2        13        35        36        92
         2        13        35        91        92
         2         2         3        12        36
         2         2        12        13        36
         2        12        13        36        92
         2         3        12        36        37
         2        12        36        37        93
         2        12        36        92        93
         2         3         4        11        37
         2         3        11        12        37
         2        11        12        37        93
         2         4        11        37        38
         2        11        37        38        94
         2        11        37        93        94
         2         4         5        10        38
         2         4        10        11        38
         2        10        11        38        94
         2         5        10        38        39
         2        10        38        39        95
         2        10        38        94        95
         2         4         5         9        39
         2         5         9        10        39
         2         9        10        39        95
         2         4         9        39        40
         2         9        39        40        96
         2         9        39        95        96
         2         3         4         8        40
         2         4         8         9        40
         2         8         9        40        96
         2         3         8        40        41
         2         8        40        41        97
         2         8        40        96        97
         2         2         3         7        41
         2         3         7         8        41
         2         7         8        41        97
         2         2         7        41        42
         2         7        41        42        98
         2         7        41        97        98
         2         1         2         6        42
         2         2         6         7        42
         2         6         7        42        98
         2         1         6        35        42
         2         6        35        42        91
         2         6        42        91        98
         2        36        43        44       104
         2        35        36        43       104
         2        35        36        99       104
         2        36        44       104       105
         2        36       100       104       105
         2        36        99       100       104
         2        37        44        45       105
         2        36        37        44       105