 running on   96 total cores
 distrk:  each k-point on   96 cores,    1 groups
 distr:  one band on   12 cores,    8 groups
 using from now: INCAR     
 vasp.5.4.1 24Jun15 (build Nov 16 2016 17:59:42) complex                        
  
 POSCAR found type information on POSCAR  Sr Ir O 
 POSCAR found :  3 types and      28 ions
 scaLAPACK will be used
 LDA part: xc-table for Pade appr. of Perdew
 POSCAR, INCAR and KPOINTS ok, starting setup
 WARNING: small aliasing (wrap around) errors must be expected
 FFT: planning ...
 WAVECAR not read
 entering main loop
       N       E                     dE             d eps       ncg     rms          rms(c)
DAV:   1     0.179254983814E+04    0.17925E+04   -0.86734E+04 72008   0.119E+03
DAV:   2     0.259594002311E+02   -0.17666E+04   -0.16599E+04 73992   0.370E+02
DAV:   3    -0.206622731413E+03   -0.23258E+03   -0.22300E+03 98064   0.135E+02
DAV:   4    -0.218219482580E+03   -0.11597E+02   -0.11449E+02 96576   0.303E+01
DAV:   5    -0.218966114758E+03   -0.74663E+00   -0.74537E+00123896   0.574E+00    0.120E+02
RMM:   6    -0.237025827062E+03   -0.18060E+02   -0.32337E+02 82898   0.439E+01    0.212E+02
RMM:   7    -0.220622854952E+03    0.16403E+02   -0.20738E+01 98307   0.109E+01    0.196E+02
RMM:   8    -0.315996699125E+03   -0.95374E+02   -0.18310E+02 79260   0.290E+01    0.147E+02
RMM:   9    -0.273080860356E+03    0.42916E+02   -0.37412E+01 78190   0.194E+01    0.880E+01
RMM:  10    -0.208612814677E+03    0.64468E+02   -0.56607E+01 78267   0.170E+01    0.699E+01
RMM:  11    -0.189046254630E+03    0.19567E+02   -0.29769E+01 82876   0.127E+01    0.673E+01
RMM:  12    -0.181973197025E+03    0.70731E+01   -0.58959E+00 82833   0.593E+00    0.631E+01
RMM:  13    -0.178838348906E+03    0.31348E+01   -0.30090E+00 84361   0.434E+00    0.570E+01
RMM:  14    -0.177160725921E+03    0.16776E+01   -0.16714E+00 88579   0.291E+00    0.491E+01
RMM:  15    -0.177367815787E+03   -0.20709E+00   -0.46162E-01 84041   0.163E+00    0.476E+01
RMM:  16    -0.177337638399E+03    0.30177E-01   -0.11539E-01112955   0.604E-01    0.461E+01
RMM:  17    -0.176893727282E+03    0.44391E+00   -0.49566E-01 80383   0.177E+00    0.338E+01
RMM:  18    -0.176531711732E+03    0.36202E+00   -0.54619E-01 81162   0.196E+00    0.214E+01
RMM:  19    -0.176385212783E+03    0.14650E+00   -0.35841E-01 82674   0.144E+00    0.168E+01
RMM:  20    -0.176470039442E+03   -0.84827E-01   -0.13728E-01 91576   0.830E-01    0.103E+01
RMM:  21    -0.176397485224E+03    0.72554E-01   -0.45651E-02 81386   0.528E-01    0.873E+00
RMM:  22    -0.176387654502E+03    0.98307E-02   -0.50389E-02 81445   0.556E-01    0.557E+00
RMM:  23    -0.176326019830E+03    0.61635E-01   -0.28345E-02 84102   0.393E-01    0.450E+00
RMM:  24    -0.176194127143E+03    0.13189E+00   -0.63806E-02 80123   0.634E-01    0.484E+00
RMM:  25    -0.176221100987E+03   -0.26974E-01   -0.10853E-02 84560   0.254E-01    0.317E+00
RMM:  26    -0.176166774970E+03    0.54326E-01   -0.29850E-02 80360   0.419E-01    0.252E+00
RMM:  27    -0.176156153485E+03    0.10621E-01   -0.30057E-02 84581   0.406E-01    0.769E-01
RMM:  28    -0.176154988757E+03    0.11647E-02   -0.63003E-03 94877   0.185E-01    0.544E-01
RMM:  29    -0.176155358020E+03   -0.36926E-03   -0.15314E-03 90990   0.854E-02    0.335E-01
RMM:  30    -0.176155247545E+03    0.11048E-03   -0.25709E-04 81045   0.423E-02    0.416E-01
WARNING in EDDRMM: call to ZHEGV failed, returncode =   8  4 17
RMM:  31    -0.176155187201E+03    0.60344E-04   -0.95660E-05 79020   0.231E-02    0.149E-01
RMM:  32    -0.176155249369E+03   -0.62168E-04   -0.55502E-05 71331   0.184E-02    0.108E-01
WARNING in EDDRMM: call to ZHEGV failed, returncode =   6  3 17
RMM:  33    -0.176155274377E+03   -0.25008E-04   -0.32774E-05 59637   0.156E-02    0.947E-02
RMM:  34    -0.176155308020E+03   -0.33643E-04   -0.16281E-05 50296   0.122E-02    0.404E-02
RMM:  35    -0.176155321192E+03   -0.13172E-04   -0.84055E-06 47370   0.882E-03    0.309E-02
WARNING in EDDRMM: call to ZHEGV failed, returncode =   6  3 17
RMM:  36    -0.176155331817E+03   -0.10625E-04   -0.83881E-06 47061   0.894E-03    0.394E-02
WARNING in EDDRMM: call to ZHEGV failed, returncode =   6  3 17
RMM:  37    -0.176155331915E+03   -0.98120E-07   -0.47963E-06 45804   0.733E-03
   1 F= -.17615533E+03 E0= -.17615533E+03  d E =0.000000E+00  mag=     0.4722
