SrIr2O4 prototype                       
           1
     5.313941   -0.023417    0.008567
    -0.026165    5.744373    0.027544
     0.021640    0.071503   14.822946
   Sr   Ir   O 
   4   8  16
Direct configuration=     1
   0.50346151  0.99747412  0.11925618
   0.01074056  0.49136789  0.38213052
   0.00746791  0.48746811  0.11466260
   0.50075982  0.01078615  0.38620275
   0.99004549  0.98891020  0.98831216
   0.48602436  0.50067775  0.98697796
   0.01271881  0.01738633  0.24984393
   0.51401598  0.49158236  0.25007863
   0.49162075  0.50305888  0.51258788
   0.99754029  0.98875505  0.51169006
   0.55882784  0.43879262  0.74997151
   0.04120680  0.06404983  0.75067041
   0.24277811  0.74481955  0.48192618
   0.25807148  0.75004272  0.02010660
   0.98560879  0.04321013  0.11900667
   0.53669536  0.45575416  0.38083186
   0.52030457  0.44398971  0.12057806
   0.97018460  0.03958170  0.37961532
   0.32225146  0.80162158  0.25714615
   0.82522353  0.69780242  0.24501018
   0.26323885  0.23696709  0.50476669
   0.33438015  0.20306419  0.98396083
   0.50553920  0.56205567  0.63542741
   0.96015163  0.98430571  0.86739959
   0.97865961  0.97274182  0.63462339
   0.49635414  0.56968259  0.86339276
   0.90456219  0.37268496  0.75214366
   0.38985421  0.14336668  0.75168006
