       N       E                     dE             d eps       ncg     rms          rms(c)
DAV:   1     0.224346409471E+04    0.22435E+04   -0.97242E+04 72576   0.128E+03
DAV:   2     0.454325521171E+02   -0.21980E+04   -0.20785E+04 74704   0.414E+02
DAV:   3    -0.239739368068E+03   -0.28517E+03   -0.27389E+03 95416   0.152E+02
DAV:   4    -0.254301548571E+03   -0.14562E+02   -0.14286E+02 96168   0.339E+01
DAV:   5    -0.255065559713E+03   -0.76401E+00   -0.76219E+00124712   0.643E+00    0.102E+02
RMM:   6    -0.221220077864E+03    0.33845E+02   -0.21964E+02 75271   0.358E+01    0.577E+01
RMM:   7    -0.220152956769E+03    0.10671E+01   -0.24234E+01 76381   0.139E+01    0.365E+01
RMM:   8    -0.222838495844E+03   -0.26855E+01   -0.13161E+01 78973   0.995E+00    0.269E+01
RMM:   9    -0.216675426112E+03    0.61631E+01   -0.48354E+00 77109   0.574E+00    0.103E+01
RMM:  10    -0.216495400748E+03    0.18003E+00   -0.12084E+00 87434   0.272E+00    0.776E+00
RMM:  11    -0.216405292852E+03    0.90108E-01   -0.34889E-01 88408   0.140E+00    0.394E+00
RMM:  12    -0.216462789827E+03   -0.57497E-01   -0.96259E-02 94579   0.694E-01    0.286E+00
RMM:  13    -0.216657956710E+03   -0.19517E+00   -0.72373E-02 87697   0.575E-01    0.163E+00
RMM:  14    -0.216821447656E+03   -0.16349E+00   -0.94953E-02 82835   0.612E-01    0.133E+00
RMM:  15    -0.216858746388E+03   -0.37299E-01   -0.37522E-02 85393   0.386E-01    0.366E-01
RMM:  16    -0.216864364588E+03   -0.56182E-02   -0.75078E-03101383   0.157E-01    0.301E-01
RMM:  17    -0.216867427676E+03   -0.30631E-02   -0.18263E-03 97398   0.891E-02    0.175E-01
RMM:  18    -0.216869842296E+03   -0.24146E-02   -0.99736E-04 95220   0.627E-02    0.950E-02
RMM:  19    -0.216871247324E+03   -0.14050E-02   -0.61930E-04 95265   0.432E-02    0.670E-02
RMM:  20    -0.216871802406E+03   -0.55508E-03   -0.37666E-04 93259   0.363E-02    0.307E-02
RMM:  21    -0.216871864923E+03   -0.62516E-04   -0.89641E-05103557   0.195E-02    0.210E-02
RMM:  22    -0.216871894356E+03   -0.29433E-04   -0.30652E-05104348   0.117E-02    0.151E-02
RMM:  23    -0.216871906065E+03   -0.11709E-04   -0.30370E-05 93579   0.137E-02    0.814E-03
RMM:  24    -0.216871906190E+03   -0.12486E-06   -0.84237E-06 99751   0.724E-03    0.686E-03
RMM:  25    -0.216871905555E+03    0.63515E-06   -0.55069E-06 96961   0.528E-03    0.497E-03
RMM:  26    -0.216871903903E+03    0.16519E-05   -0.64286E-06 90899   0.638E-03    0.288E-03
RMM:  27    -0.216871902213E+03    0.16901E-05   -0.17812E-06 86598   0.360E-03    0.155E-03
RMM:  28    -0.216871901771E+03    0.44127E-06   -0.12766E-06 87725   0.254E-03    0.101E-03
RMM:  29    -0.216871901597E+03    0.17432E-06   -0.20359E-07 58086   0.148E-03    0.727E-04
RMM:  30    -0.216871901600E+03   -0.28995E-08   -0.16727E-07 52359   0.883E-04
   1 F= -.21687190E+03 E0= -.21687190E+03  d E =0.000000E+00  mag=     0.0010
