unknown system                          
           1
    13.145669    0.000000   -0.798677
     0.000000    3.131281    0.000000
    -0.121480    0.000000    9.950520
   Sr   Ir   O 
   2  10  20
Direct configuration=     1
   0.25002371  0.00000000  0.18105299
   0.24997629  0.50000000  0.81894701
   0.01929373  0.50000000  0.99035651
   0.48070627  0.00000000  0.00964349
   0.01082388  0.00000000  0.26081795
   0.50191155  0.50000000  0.25957206
   0.99808845  0.00000000  0.74042794
   0.48917612  0.50000000  0.73918205
   0.34197076  0.00000000  0.47782276
   0.84796989  0.50000000  0.47970457
   0.65203011  0.00000000  0.52029543
   0.15802924  0.50000000  0.52217724
   0.57408838  0.00000000  0.17939232
   0.09696743  0.50000000  0.18073904
   0.40303257  0.00000000  0.81926096
   0.92591162  0.50000000  0.82060768
   0.09059949  0.00000000  0.43387144
   0.58641247  0.50000000  0.42546285
   0.91358753  0.00000000  0.57453715
   0.40940051  0.50000000  0.56612856
   0.76678202  0.00000000  0.39592407
   0.26461583  0.50000000  0.37649426
   0.23538417  0.00000000  0.62350574
   0.73321798  0.50000000  0.60407593
   0.42079234  0.00000000  0.31876649
   0.93176024  0.50000000  0.32193010
   0.56823976  0.00000000  0.67806990
   0.07920766  0.50000000  0.68123351
   0.94905295  0.00000000  0.07019894
   0.38373168  0.50000000  0.07968389
   0.11626832  0.00000000  0.92031611
   0.55094705  0.50000000  0.92980106
