   28   28  901    2
  0.1766632E+02  0.5555401E-09  0.5635416E-09  0.1580020E-08  0.5000000E-15
  1.000000000000000E-004
  CAR 
 SrIr2O4 prototype                       
    208     20    136
 
  0.3742002E-15  0.3742002E-15  0.1262379E-14  0.3125000E-01
    1      -30.985377    -30.985377   1.000000   1.000000
    2      -30.982712    -30.982712   1.000000   1.000000
    3      -30.978839    -30.978839   1.000000   1.000000
    4      -30.975841    -30.975841   1.000000   1.000000
    5      -17.122978    -17.122978   1.000000   1.000000
    6      -17.029526    -17.029526   1.000000   1.000000
    7      -17.016963    -17.016963   1.000000   1.000000
    8      -16.913774    -16.913774   1.000000   1.000000
    9      -16.090241    -16.090241   1.000000   1.000000
   10      -16.075000    -16.075000   1.000000   1.000000
   11      -16.071242    -16.071242   1.000000   1.000000
   12      -16.057571    -16.057571   1.000000   1.000000
   13      -15.633340    -15.633340   1.000000   1.000000
   14      -15.608296    -15.608296   1.000000   1.000000
   15      -15.541884    -15.541884   1.000000   1.000000
   16      -15.521887    -15.521887   1.000000   1.000000
   17      -15.516848    -15.516848   1.000000   1.000000
   18      -15.498094    -15.498094   1.000000   1.000000
   19      -15.416004    -15.416004   1.000000   1.000000
   20      -15.393116    -15.393116   1.000000   1.000000
   21      -13.177873    -13.177873   1.000000   1.000000
   22      -13.157221    -13.157221   1.000000   1.000000
   23      -13.154864    -13.154864   1.000000   1.000000
   24      -12.976146    -12.976146   1.000000   1.000000
   25      -12.974478    -12.974478   1.000000   1.000000
   26      -12.968746    -12.968746   1.000000   1.000000
   27      -12.963956    -12.963956   1.000000   1.000000
   28      -12.917466    -12.917466   1.000000   1.000000
   29      -12.909033    -12.909033   1.000000   1.000000
   30      -12.793756    -12.793756   1.000000   1.000000
   31      -12.792577    -12.792577   1.000000   1.000000
   32      -12.647814    -12.647814   1.000000   1.000000
   33       -6.020906     -6.020906   1.000000   1.000000
   34       -5.983595     -5.983595   1.000000   1.000000
   35       -5.970994     -5.970994   1.000000   1.000000
   36       -5.935527     -5.935527   1.000000   1.000000
   37       -5.923214     -5.923214   1.000000   1.000000
   38       -5.917334     -5.917334   1.000000   1.000000
   39       -5.916081     -5.916081   1.000000   1.000000
   40       -5.910376     -5.910376   1.000000   1.000000
   41       -4.345744     -4.345744   1.000000   1.000000
   42       -4.091078     -4.091078   1.000000   1.000000
   43       -4.088179     -4.088179   1.000000   1.000000
   44       -3.844649     -3.844649   1.000000   1.000000
   45       -2.621690     -2.621690   1.000000   1.000000
   46       -2.593006     -2.593006   1.000000   1.000000
   47       -2.499706     -2.499706   1.000000   1.000000
   48       -2.480325     -2.480325   1.000000   1.000000
   49       -2.462251     -2.462251   1.000000   1.000000
   50       -2.443749     -2.443749   1.000000   1.000000
   51       -2.422897     -2.422897   1.000000   1.000000
   52       -2.391676     -2.391676   1.000000   1.000000
   53       -2.014572     -2.014572   1.000000   1.000000
   54       -1.999237     -1.999237   1.000000   1.000000
   55       -1.978883     -1.978883   1.000000   1.000000
   56       -1.968886     -1.968886   1.000000   1.000000
   57       -1.930307     -1.930307   1.000000   1.000000
   58       -1.925537     -1.925537   1.000000   1.000000
   59       -1.906645     -1.906645   1.000000   1.000000
   60       -1.882853     -1.882853   1.000000   1.000000
   61       -1.822358     -1.822358   1.000000   1.000000
   62       -1.499731     -1.499731   1.000000   1.000000
   63       -1.494537     -1.494537   1.000000   1.000000
   64       -0.800287     -0.800287   1.000000   1.000000
   65       -0.448891     -0.448891   1.000000   1.000000
   66       -0.212593     -0.212593   1.000000   1.000000
   67       -0.198132     -0.198132   1.000000   1.000000
   68        0.060641      0.060641   1.000000   1.000000
   69        0.189408      0.189408   1.000000   1.000000
   70        0.305491      0.305491   1.000000   1.000000
   71        0.329914      0.329914   1.000000   1.000000
   72        0.347415      0.347415   1.000000   1.000000
   73        0.369417      0.369417   1.000000   1.000000
   74        0.386065      0.386065   1.000000   1.000000
   75        0.403434      0.403434   1.000000   1.000000
   76        0.407241      0.407241   1.000000   1.000000
   77        0.420493      0.420493   1.000000   1.000000
   78        0.437453      0.437453   1.000000   1.000000
   79        0.441538      0.441538   1.000000   1.000000
   80        0.480150      0.480150   1.000000   1.000000
   81        0.488033      0.488033   1.000000   1.000000
   82        0.585554      0.585554   1.000000   1.000000
   83        0.951755      0.951755   1.000000   1.000000
   84        0.961760      0.961760   1.000000   1.000000
   85        1.052581      1.052581   1.000000   1.000000
   86        1.053616      1.053616   1.000000   1.000000
   87        1.062711      1.062711   1.000000   1.000000
   88        1.069661      1.069661   1.000000   1.000000
   89        1.138263      1.138263   1.000000   1.000000
   90        1.147699      1.147699   1.000000   1.000000
   91        1.243305      1.243305   1.000000   1.000000
   92        1.270967      1.270967   1.000000   1.000000
   93        1.362985      1.362985   1.000000   1.000000
   94        1.395172      1.395172   1.000000   1.000000
   95        1.509579      1.509579   1.000000   1.000000
   96        1.523085      1.523085   1.000000   1.000000
   97        1.536941      1.536941   1.000000   1.000000
   98        1.549441      1.549441   1.000000   1.000000
   99        2.345595      2.345595   1.000000   1.000000
  100        2.765112      2.765112   1.000000   1.000000
  101        4.116546      4.116546  -0.004849  -0.004849
  102        4.121857      4.121857  -0.003443  -0.003443
  103        4.128050      4.128050  -0.001965  -0.001965
  104        4.139174      4.139174   0.000269   0.000269
  105        4.309749      4.309749   0.001713   0.001713
  106        4.322625      4.322625   0.001378   0.001378
  107        4.331532      4.331532   0.001176   0.001176
  108        4.340700      4.340700   0.000991   0.000991
  109        4.350629      4.350629   0.000818   0.000818
  110        4.356183      4.356183   0.000732   0.000732
  111        4.370059      4.370059   0.000549   0.000549
  112        4.386314      4.386314   0.000385   0.000385
  113        4.632886      4.632886   0.000000   0.000000
  114        4.746655      4.746655   0.000000   0.000000
  115        4.749561      4.749561   0.000000   0.000000
  116        4.868605      4.868605   0.000000   0.000000
  117        5.204113      5.204113   0.000000   0.000000
  118        6.836071      6.836071   0.000000   0.000000
  119        6.984604      6.984604   0.000000   0.000000
  120        7.018618      7.018618   0.000000   0.000000
  121        7.030483      7.030483   0.000000   0.000000
  122        7.590689      7.590689   0.000000   0.000000
  123        7.609339      7.609339   0.000000   0.000000
  124        9.060682      9.060682   0.000000   0.000000
  125        9.208902      9.208902   0.000000   0.000000
  126        9.526634      9.526634   0.000000   0.000000
  127        9.567883      9.567883   0.000000   0.000000
  128        9.637323      9.637323   0.000000   0.000000
  129        9.650424      9.650424   0.000000   0.000000
  130        9.666777      9.666777   0.000000   0.000000
  131        9.817738      9.817738   0.000000   0.000000
  132        9.885919      9.885919   0.000000   0.000000
  133        9.892357      9.892357   0.000000   0.000000
  134       10.076894     10.076894   0.000000   0.000000
  135       10.093481     10.093481   0.000000   0.000000
  136       10.138332     10.138332   0.000000   0.000000
 
  0.2500000E+00  0.3742002E-15  0.1262379E-14  0.6250000E-01
    1      -30.984678    -30.984678   1.000000   1.000000
    2      -30.982694    -30.982694   1.000000   1.000000
    3      -30.978446    -30.978446   1.000000   1.000000
    4      -30.975952    -30.975952   1.000000   1.000000
    5      -16.924188    -16.924188   1.000000   1.000000
    6      -16.854196    -16.854196   1.000000   1.000000
    7      -16.837877    -16.837877   1.000000   1.000000
    8      -16.754785    -16.754785   1.000000   1.000000
    9      -16.035231    -16.035231   1.000000   1.000000
   10      -16.013615    -16.013615   1.000000   1.000000
   11      -16.006137    -16.006137   1.000000   1.000000
   12      -15.982346    -15.982346   1.000000   1.000000
   13      -15.836966    -15.836966   1.000000   1.000000
   14      -15.781346    -15.781346   1.000000   1.000000
   15      -15.762373    -15.762373   1.000000   1.000000
   16      -15.723006    -15.723006   1.000000   1.000000
   17      -15.700846    -15.700846   1.000000   1.000000
   18      -15.623047    -15.623047   1.000000   1.000000
   19      -15.601264    -15.601264   1.000000   1.000000
   20      -15.518543    -15.518543   1.000000   1.000000
   21      -13.119238    -13.119238   1.000000   1.000000
   22      -13.111689    -13.111689   1.000000   1.000000
   23      -13.106524    -13.106524   1.000000   1.000000
   24      -13.100882    -13.100882   1.000000   1.000000
   25      -13.064391    -13.064391   1.000000   1.000000
   26      -12.986589    -12.986589   1.000000   1.000000
   27      -12.972090    -12.972090   1.000000   1.000000
   28      -12.870434    -12.870434   1.000000   1.000000
   29      -12.855005    -12.855005   1.000000   1.000000
   30      -12.791714    -12.791714   1.000000   1.000000
   31      -12.770066    -12.770066   1.000000   1.000000
   32      -12.703466    -12.703466   1.000000   1.000000
   33       -5.458092     -5.458092   1.000000   1.000000
   34       -5.451873     -5.451873   1.000000   1.000000
   35       -5.450441     -5.450441   1.000000   1.000000
   36       -5.448474     -5.448474   1.000000   1.000000
   37       -5.430300     -5.430300   1.000000   1.000000
   38       -5.395799     -5.395799   1.000000   1.000000
   39       -5.384486     -5.384486   1.000000   1.000000
   40       -5.350352     -5.350352   1.000000   1.000000
   41       -3.982009     -3.982009   1.000000   1.000000
   42       -3.811073     -3.811073   1.000000   1.000000
   43       -3.799666     -3.799666   1.000000   1.000000
   44       -3.591609     -3.591609   1.000000   1.000000
   45       -2.812939     -2.812939   1.000000   1.000000
   46       -2.809134     -2.809134   1.000000   1.000000
   47       -2.747526     -2.747526   1.000000   1.000000
   48       -2.728913     -2.728913   1.000000   1.000000
   49       -2.724514     -2.724514   1.000000   1.000000
   50       -2.708362     -2.708362   1.000000   1.000000
   51       -2.699993     -2.699993   1.000000   1.000000
   52       -2.649227     -2.649227   1.000000   1.000000
   53       -2.365184     -2.365184   1.000000   1.000000
   54       -2.271679     -2.271679   1.000000   1.000000
   55       -2.264876     -2.264876   1.000000   1.000000
   56       -2.260269     -2.260269   1.000000   1.000000
   57       -2.249224     -2.249224   1.000000   1.000000
   58       -2.223082     -2.223082   1.000000   1.000000
   59       -2.191139     -2.191139   1.000000   1.000000
   60       -2.118583     -2.118583   1.000000   1.000000
   61       -2.046742     -2.046742   1.000000   1.000000
   62       -1.676716     -1.676716   1.000000   1.000000
   63       -1.665876     -1.665876   1.000000   1.000000
   64       -1.209136     -1.209136   1.000000   1.000000
   65       -1.194287     -1.194287   1.000000   1.000000
   66       -1.192374     -1.192374   1.000000   1.000000
   67       -1.180377     -1.180377   1.000000   1.000000
   68       -1.148003     -1.148003   1.000000   1.000000
   69       -1.051857     -1.051857   1.000000   1.000000
   70       -0.888849     -0.888849   1.000000   1.000000
   71       -0.874863     -0.874863   1.000000   1.000000
   72       -0.730601     -0.730601   1.000000   1.000000
   73        0.156976      0.156976   1.000000   1.000000
   74        0.202011      0.202011   1.000000   1.000000
   75        0.214114      0.214114   1.000000   1.000000
   76        0.276575      0.276575   1.000000   1.000000
   77        0.331488      0.331488   1.000000   1.000000
   78        0.589895      0.589895   1.000000   1.000000
   79        1.078156      1.078156   1.000000   1.000000
   80        1.089337      1.089337   1.000000   1.000000
   81        1.163331      1.163331   1.000000   1.000000
   82        1.183867      1.183867   1.000000   1.000000
   83        1.192247      1.192247   1.000000   1.000000
   84        1.201582      1.201582   1.000000   1.000000
   85        1.384271      1.384271   1.000000   1.000000
   86        1.396844      1.396844   1.000000   1.000000
   87        1.402685      1.402685   1.000000   1.000000
   88        1.680609      1.680609   1.000000   1.000000
   89        1.695264      1.695264   1.000000   1.000000
   90        1.714342      1.714342   1.000000   1.000000
   91        1.822482      1.822482   1.000000   1.000000
   92        1.867183      1.867183   1.000000   1.000000
   93        1.914173      1.914173   1.000000   1.000000
   94        1.922828      1.922828   1.000000   1.000000
   95        1.933141      1.933141   1.000000   1.000000
   96        1.940899      1.940899   1.000000   1.000000
   97        1.945044      1.945044   1.000000   1.000000
   98        2.054797      2.054797   1.000000   1.000000
   99        2.481255      2.481255   1.000000   1.000000
  100        2.716162      2.716162   1.000000   1.000000
  101        3.450836      3.450836   0.998881   0.998881
  102        3.775672      3.775672   0.614645   0.614645
  103        3.788750      3.788750   0.546472   0.546472
  104        3.876702      3.876702   0.128271   0.128271
  105        3.951981      3.951981  -0.036802  -0.036802
  106        4.006882      4.006882  -0.049284  -0.049284
  107        4.014209      4.014209  -0.047179  -0.047179
  108        4.068387      4.068387  -0.023117  -0.023117
  109        4.223399      4.223399   0.004636   0.004636
  110        4.331132      4.331132   0.001184   0.001184
  111        4.332265      4.332265   0.001160   0.001160
  112        4.444732      4.444732   0.000093   0.000093
  113        5.439786      5.439786   0.000000   0.000000
  114        5.449972      5.449972   0.000000   0.000000
  115        5.451022      5.451022   0.000000   0.000000
  116        5.460414      5.460414   0.000000   0.000000
  117        6.072529      6.072529   0.000000   0.000000
  118        6.938407      6.938407   0.000000   0.000000
  119        7.455315      7.455315   0.000000   0.000000
  120        7.482355      7.482355   0.000000   0.000000
  121        7.572827      7.572827   0.000000   0.000000
  122        7.971500      7.971500   0.000000   0.000000
  123        8.014894      8.014894   0.000000   0.000000
  124        9.190130      9.190130   0.000000   0.000000
  125        9.300643      9.300643   0.000000   0.000000
  126        9.324374      9.324374   0.000000   0.000000
  127        9.345500      9.345500   0.000000   0.000000
  128        9.361526      9.361526   0.000000   0.000000
  129        9.644951      9.644951   0.000000   0.000000
  130        9.654431      9.654431   0.000000   0.000000
  131        9.665792      9.665792   0.000000   0.000000
  132        9.747050      9.747050   0.000000   0.000000
  133        9.790253      9.790253   0.000000   0.000000
  134        9.852851      9.852851   0.000000   0.000000
  135        9.874102      9.874102   0.000000   0.000000
  136       10.008121     10.008117   0.000000   0.000000
 
  0.5000000E+00  0.3742002E-15  0.1262379E-14  0.3125000E-01
    1      -30.983772    -30.983772   1.000000   1.000000
    2      -30.982876    -30.982876   1.000000   1.000000
    3      -30.977994    -30.977994   1.000000   1.000000
    4      -30.976126    -30.976126   1.000000   1.000000
    5      -16.494286    -16.494286   1.000000   1.000000
    6      -16.459094    -16.459094   1.000000   1.000000
    7      -16.429691    -16.429691   1.000000   1.000000
    8      -16.375669    -16.375669   1.000000   1.000000
    9      -16.354110    -16.354110   1.000000   1.000000
   10      -16.272459    -16.272459   1.000000   1.000000
   11      -16.233127    -16.233127   1.000000   1.000000
   12      -16.208326    -16.208326   1.000000   1.000000
   13      -15.935354    -15.935354   1.000000   1.000000
   14      -15.902569    -15.902569   1.000000   1.000000
   15      -15.879851    -15.879851   1.000000   1.000000
   16      -15.840663    -15.840663   1.000000   1.000000
   17      -15.810278    -15.810278   1.000000   1.000000
   18      -15.766108    -15.766108   1.000000   1.000000
   19      -15.727600    -15.727600   1.000000   1.000000
   20      -15.691911    -15.691911   1.000000   1.000000
   21      -13.169253    -13.169253   1.000000   1.000000
   22      -13.158179    -13.158179   1.000000   1.000000
   23      -13.012351    -13.012351   1.000000   1.000000
   24      -13.009412    -13.009412   1.000000   1.000000
   25      -13.003421    -13.003421   1.000000   1.000000
   26      -12.993921    -12.993921   1.000000   1.000000
   27      -12.989269    -12.989269   1.000000   1.000000
   28      -12.966278    -12.966278   1.000000   1.000000
   29      -12.885038    -12.885038   1.000000   1.000000
   30      -12.855746    -12.855746   1.000000   1.000000
   31      -12.729728    -12.729728   1.000000   1.000000
   32      -12.702039    -12.702039   1.000000   1.000000
   33       -4.337503     -4.337503   1.000000   1.000000
   34       -4.295463     -4.295463   1.000000   1.000000
   35       -4.291235     -4.291235   1.000000   1.000000
   36       -4.221725     -4.221725   1.000000   1.000000
   37       -4.214829     -4.214829   1.000000   1.000000
   38       -4.140294     -4.140294   1.000000   1.000000
   39       -4.135338     -4.135338   1.000000   1.000000
   40       -4.118462     -4.118462   1.000000   1.000000
   41       -4.105346     -4.105346   1.000000   1.000000
   42       -4.100312     -4.100312   1.000000   1.000000
   43       -4.077170     -4.077170   1.000000   1.000000
   44       -4.026684     -4.026684   1.000000   1.000000
   45       -4.024674     -4.024674   1.000000   1.000000
   46       -3.960447     -3.960447   1.000000   1.000000
   47       -3.939707     -3.939707   1.000000   1.000000
   48       -3.925405     -3.925405   1.000000   1.000000
   49       -3.055177     -3.055177   1.000000   1.000000
   50       -3.047964     -3.047964   1.000000   1.000000
   51       -2.951940     -2.951940   1.000000   1.000000
   52       -2.842866     -2.842866   1.000000   1.000000
   53       -2.831220     -2.831220   1.000000   1.000000
   54       -2.718727     -2.718727   1.000000   1.000000
   55       -2.643341     -2.643341   1.000000   1.000000
   56       -2.626806     -2.626806   1.000000   1.000000
   57       -2.300823     -2.300823   1.000000   1.000000
   58       -2.216466     -2.216466   1.000000   1.000000
   59       -2.098502     -2.098502   1.000000   1.000000
   60       -2.067443     -2.067443   1.000000   1.000000
   61       -1.934522     -1.934522   1.000000   1.000000
   62       -1.909483     -1.909483   1.000000   1.000000
   63       -1.888880     -1.888880   1.000000   1.000000
   64       -1.887372     -1.887372   1.000000   1.000000
   65       -1.847308     -1.847308   1.000000   1.000000
   66       -1.754892     -1.754892   1.000000   1.000000
   67       -1.745191     -1.745191   1.000000   1.000000
   68       -1.701179     -1.701179   1.000000   1.000000
   69       -1.670636     -1.670636   1.000000   1.000000
   70       -1.605983     -1.605983   1.000000   1.000000
   71       -1.536115     -1.536115   1.000000   1.000000
   72       -1.515528     -1.515528   1.000000   1.000000
   73        0.467861      0.467861   1.000000   1.000000
   74        0.472515      0.472515   1.000000   1.000000
   75        0.510127      0.510127   1.000000   1.000000
   76        0.534500      0.534500   1.000000   1.000000
   77        0.545821      0.545821   1.000000   1.000000
   78        0.577128      0.577128   1.000000   1.000000
   79        0.585791      0.585791   1.000000   1.000000
   80        0.660540      0.660540   1.000000   1.000000
   81        0.699366      0.699366   1.000000   1.000000
   82        0.705476      0.705476   1.000000   1.000000
   83        1.106992      1.106992   1.000000   1.000000
   84        1.110695      1.110695   1.000000   1.000000
   85        1.476163      1.476163   1.000000   1.000000
   86        1.485213      1.485213   1.000000   1.000000
   87        2.324801      2.324801   1.000000   1.000000
   88        2.328327      2.328327   1.000000   1.000000
   89        2.548661      2.548661   1.000000   1.000000
   90        2.556135      2.556135   1.000000   1.000000
   91        2.600456      2.600456   1.000000   1.000000
   92        2.603954      2.603954   1.000000   1.000000
   93        2.789678      2.789678   1.000000   1.000000
   94        2.792516      2.792516   1.000000   1.000000
   95        2.806555      2.806555   1.000000   1.000000
   96        2.823223      2.823223   1.000000   1.000000
   97        2.966197      2.966197   1.000000   1.000000
   98        3.025780      3.025780   0.999998   0.999998
   99        3.080315      3.080315   0.999988   0.999988
  100        3.086994      3.086994   0.999985   0.999985
  101        3.130234      3.130234   0.999946   0.999946
  102        3.137613      3.137613   0.999934   0.999934
  103        3.140726      3.140726   0.999928   0.999928
  104        3.196966      3.196966   0.999706   0.999706
  105        3.206374      3.206374   0.999635   0.999635
  106        3.225354      3.225354   0.999447   0.999447
  107        3.236611      3.236611   0.999301   0.999301
  108        3.246298      3.246298   0.999152   0.999152
  109        3.334471      3.334471   0.996617   0.996617
  110        3.350053      3.350053   0.996040   0.996040
  111        3.366664      3.366664   0.995499   0.995499
  112        3.425837      3.425837   0.996090   0.996090
  113        6.934333      6.934333   0.000000   0.000000
  114        6.936686      6.936686   0.000000   0.000000
  115        7.802962      7.802962   0.000000   0.000000
  116        7.823557      7.823557   0.000000   0.000000
  117        7.824289      7.824289   0.000000   0.000000
  118        7.826984      7.826984   0.000000   0.000000
  119        7.843334      7.843334   0.000000   0.000000
  120        7.846243      7.846243   0.000000   0.000000
  121        7.850414      7.850414   0.000000   0.000000
  122        7.862912      7.862912   0.000000   0.000000
  123        7.900723      7.900723   0.000000   0.000000
  124        7.907420      7.907420   0.000000   0.000000
  125        8.446110      8.446110   0.000000   0.000000
  126        8.451144      8.451144   0.000000   0.000000
  127        8.755901      8.755901   0.000000   0.000000
  128        8.767190      8.767190   0.000000   0.000000
  129        8.958436      8.958436   0.000000   0.000000
  130        8.979364      8.979364   0.000000   0.000000
  131        9.121698      9.121698   0.000000   0.000000
  132        9.153241      9.153241   0.000000   0.000000
  133        9.319432      9.319432   0.000000   0.000000
  134        9.352747      9.352747   0.000000   0.000000
  135        9.645395      9.645395   0.000000   0.000000
  136        9.661716      9.661716   0.000000   0.000000
 
  0.3742002E-15  0.2500000E+00  0.1262379E-14  0.6250000E-01
    1      -30.984693    -30.984693   1.000000   1.000000
    2      -30.982706    -30.982706   1.000000   1.000000
    3      -30.978423    -30.978423   1.000000   1.000000
    4      -30.975958    -30.975958   1.000000   1.000000
    5      -16.926379    -16.926379   1.000000   1.000000
    6      -16.855038    -16.855038   1.000000   1.000000
    7      -16.842828    -16.842828   1.000000   1.000000
    8      -16.757872    -16.757872   1.000000   1.000000
    9      -16.040566    -16.040566   1.000000   1.000000
   10      -16.015368    -16.015368   1.000000   1.000000
   11      -16.010769    -16.010769   1.000000   1.000000
   12      -15.984858    -15.984858   1.000000   1.000000
   13      -15.845779    -15.845779   1.000000   1.000000
   14      -15.792177    -15.792177   1.000000   1.000000
   15      -15.765939    -15.765939   1.000000   1.000000
   16      -15.727000    -15.727000   1.000000   1.000000
   17      -15.684092    -15.684092   1.000000   1.000000
   18      -15.605847    -15.605847   1.000000   1.000000
   19      -15.587762    -15.587762   1.000000   1.000000
   20      -15.504836    -15.504836   1.000000   1.000000
   21      -13.118086    -13.118086   1.000000   1.000000
   22      -13.112845    -13.112845   1.000000   1.000000
   23      -13.102798    -13.102798   1.000000   1.000000
   24      -13.100746    -13.100746   1.000000   1.000000
   25      -13.067669    -13.067669   1.000000   1.000000
   26      -12.982844    -12.982844   1.000000   1.000000
   27      -12.978999    -12.978999   1.000000   1.000000
   28      -12.863961    -12.863961   1.000000   1.000000
   29      -12.860941    -12.860941   1.000000   1.000000
   30      -12.780339    -12.780339   1.000000   1.000000
   31      -12.773551    -12.773551   1.000000   1.000000
   32      -12.708592    -12.708592   1.000000   1.000000
   33       -5.455530     -5.455530   1.000000   1.000000
   34       -5.449459     -5.449459   1.000000   1.000000
   35       -5.447752     -5.447752   1.000000   1.000000
   36       -5.446089     -5.446089   1.000000   1.000000
   37       -5.437518     -5.437518   1.000000   1.000000
   38       -5.404238     -5.404238   1.000000   1.000000
   39       -5.392487     -5.392487   1.000000   1.000000
   40       -5.358630     -5.358630   1.000000   1.000000
   41       -3.983241     -3.983241   1.000000   1.000000
   42       -3.808382     -3.808382   1.000000   1.000000
   43       -3.804572     -3.804572   1.000000   1.000000
   44       -3.592662     -3.592662   1.000000   1.000000
   45       -2.829475     -2.829475   1.000000   1.000000
   46       -2.806176     -2.806176   1.000000   1.000000
   47       -2.749653     -2.749653   1.000000   1.000000
   48       -2.738364     -2.738364   1.000000   1.000000
   49       -2.731678     -2.731678   1.000000   1.000000
   50       -2.704067     -2.704067   1.000000   1.000000
   51       -2.683398     -2.683398   1.000000   1.000000
   52       -2.666496     -2.666496   1.000000   1.000000
   53       -2.408753     -2.408753   1.000000   1.000000
   54       -2.330183     -2.330183   1.000000   1.000000
   55       -2.306232     -2.306232   1.000000   1.000000
   56       -2.241098     -2.241098   1.000000   1.000000
   57       -2.218481     -2.218481   1.000000   1.000000
   58       -2.195952     -2.195952   1.000000   1.000000
   59       -2.190397     -2.190397   1.000000   1.000000
   60       -2.124471     -2.124471   1.000000   1.000000
   61       -2.050615     -2.050615   1.000000   1.000000
   62       -1.678381     -1.678381   1.000000   1.000000
   63       -1.671676     -1.671676   1.000000   1.000000
   64       -1.237507     -1.237507   1.000000   1.000000
   65       -1.223030     -1.223030   1.000000   1.000000
   66       -1.210882     -1.210882   1.000000   1.000000
   67       -1.196461     -1.196461   1.000000   1.000000
   68       -1.158850     -1.158850   1.000000   1.000000
   69       -1.042733     -1.042733   1.000000   1.000000
   70       -0.873735     -0.873735   1.000000   1.000000
   71       -0.864720     -0.864720   1.000000   1.000000
   72       -0.720145     -0.720145   1.000000   1.000000
   73        0.238510      0.238510   1.000000   1.000000
   74        0.281922      0.281922   1.000000   1.000000
   75        0.293625      0.293625   1.000000   1.000000
   76        0.332385      0.332385   1.000000   1.000000
   77        0.355189      0.355189   1.000000   1.000000
   78        0.585820      0.585820   1.000000   1.000000
   79        1.113164      1.113164   1.000000   1.000000
   80        1.115448      1.115448   1.000000   1.000000
   81        1.180719      1.180719   1.000000   1.000000
   82        1.201478      1.201478   1.000000   1.000000
   83        1.214752      1.214752   1.000000   1.000000
   84        1.224418      1.224418   1.000000   1.000000
   85        1.339867      1.339867   1.000000   1.000000
   86        1.348176      1.348176   1.000000   1.000000
   87        1.392065      1.392065   1.000000   1.000000
   88        1.679058      1.679058   1.000000   1.000000
   89        1.697504      1.697504   1.000000   1.000000
   90        1.698882      1.698882   1.000000   1.000000
   91        1.820536      1.820536   1.000000   1.000000
   92        1.844676      1.844676   1.000000   1.000000
   93        1.887683      1.887683   1.000000   1.000000
   94        1.920590      1.920590   1.000000   1.000000
   95        1.927346      1.927346   1.000000   1.000000
   96        1.935297      1.935297   1.000000   1.000000
   97        1.936943      1.936943   1.000000   1.000000
   98        2.053783      2.053783   1.000000   1.000000
   99        2.480443      2.480443   1.000000   1.000000
  100        2.712161      2.712161   1.000000   1.000000
  101        3.444921      3.444921   0.998021   0.998021