 running on   96 total cores
 distrk:  each k-point on   96 cores,    1 groups
 distr:  one band on   12 cores,    8 groups
 using from now: INCAR     
 vasp.5.4.1 24Jun15 (build Nov 16 2016 17:59:42) complex                        
  
 POSCAR found type information on POSCAR  Sr Ir O 
 POSCAR found :  3 types and      28 ions
 scaLAPACK will be used
 LDA part: xc-table for Pade appr. of Perdew
 POSCAR, INCAR and KPOINTS ok, starting setup
 WARNING: small aliasing (wrap around) errors must be expected
 FFT: planning ...
 WAVECAR not read
 entering main loop
       N       E                     dE             d eps       ncg     rms          rms(c)
DAV:   1     0.173300560345E+04    0.17330E+04   -0.85611E+04 10928   0.117E+03
DAV:   2     0.287807968096E+02   -0.17042E+04   -0.15987E+04 11208   0.361E+02
DAV:   3    -0.207075399515E+03   -0.23586E+03   -0.22554E+03 14784   0.131E+02
DAV:   4    -0.219681360812E+03   -0.12606E+02   -0.12451E+02 14576   0.312E+01
DAV:   5    -0.220472175781E+03   -0.79081E+00   -0.78986E+00 18776   0.598E+00    0.865E+01
RMM:   6    -0.191637947837E+03    0.28834E+02   -0.23575E+02 11139   0.371E+01    0.451E+01
RMM:   7    -0.183518451639E+03    0.81195E+01   -0.38037E+01 11094   0.156E+01    0.296E+01
RMM:   8    -0.180572235664E+03    0.29462E+01   -0.57223E+00 11017   0.679E+00    0.656E+00
RMM:   9    -0.180712715039E+03   -0.14048E+00   -0.12628E+00 12884   0.230E+00    0.241E+00
RMM:  10    -0.180896166073E+03   -0.18345E+00   -0.23632E-01 12275   0.122E+00    0.346E+00
RMM:  11    -0.180917906148E+03   -0.21740E-01   -0.13517E-01 12170   0.810E-01    0.134E+00
RMM:  12    -0.180939906592E+03   -0.22000E-01   -0.38597E-02 12779   0.464E-01    0.145E+00
RMM:  13    -0.180936010749E+03    0.38958E-02   -0.12109E-02 13019   0.256E-01    0.709E-01
RMM:  14    -0.180940010120E+03   -0.39994E-02   -0.41200E-03 14001   0.141E-01    0.478E-01
RMM:  15    -0.180948313101E+03   -0.83030E-02   -0.49272E-03 12181   0.168E-01    0.713E-01
RMM:  16    -0.180947995530E+03    0.31757E-03   -0.24967E-03 12052   0.123E-01    0.254E-01
RMM:  17    -0.180948931568E+03   -0.93604E-03   -0.92783E-04 12598   0.693E-02    0.286E-01
RMM:  18    -0.180949124056E+03   -0.19249E-03   -0.50891E-04 12027   0.531E-02    0.171E-01
RMM:  19    -0.180949642446E+03   -0.51839E-03   -0.59064E-04 11939   0.554E-02    0.763E-02
RMM:  20    -0.180949748909E+03   -0.10646E-03   -0.26304E-04 11573   0.370E-02    0.944E-02
RMM:  21    -0.180949725941E+03    0.22968E-04   -0.83894E-05 10446   0.205E-02    0.456E-02
RMM:  22    -0.180949733222E+03   -0.72813E-05   -0.32362E-05  8603   0.134E-02
   1 F= -.18094973E+03 E0= -.18095062E+03  d E =-.180950E+03  mag=     5.3094
 curvature:   0.00 expect dE= 0.000E+00 dE for cont linesearch  0.000E+00
 trial: gam= 0.00000 g(F)=  0.116E+01 g(S)=  0.270E+02 ort = 0.000E+00 (trialstep = 0.100E+01)
 search vector abs. value=  0.282E+02
 bond charge predicted
       N       E                     dE             d eps       ncg     rms          rms(c)
DAV:   1    -0.283561618547E+03   -0.10261E+03   -0.50052E+03 12264   0.274E+02    0.250E+02
RMM:   2    -0.184696016165E+03    0.98866E+02   -0.30207E+02 10971   0.522E+01    0.122E+02
RMM:   3    -0.161950188172E+03    0.22746E+02   -0.85030E+01 11006   0.328E+01    0.346E+01
RMM:   4    -0.162832967170E+03   -0.88278E+00   -0.90455E+00 11670   0.745E+00    0.182E+01
RMM:   5    -0.163009589242E+03   -0.17662E+00   -0.23519E+00 13544   0.339E+00    0.909E+00
RMM:   6    -0.163486126072E+03   -0.47654E+00   -0.14068E+00 14557   0.241E+00    0.120E+01
RMM:   7    -0.163068869328E+03    0.41726E+00   -0.61022E-01 14609   0.179E+00    0.385E+00
RMM:   8    -0.163070690830E+03   -0.18215E-02   -0.35478E-01 14601   0.136E+00    0.289E+00
RMM:   9    -0.163063133721E+03    0.75571E-02   -0.12734E-01 14806   0.894E-01    0.160E+00
RMM:  10    -0.163090991244E+03   -0.27858E-01   -0.51472E-02 15969   0.493E-01    0.260E+00
RMM:  11    -0.163075213543E+03    0.15778E-01   -0.21664E-02 15195   0.346E-01    0.890E-01
RMM:  12    -0.163078746859E+03   -0.35333E-02   -0.11208E-02 15523   0.244E-01    0.675E-01
RMM:  13    -0.163078515619E+03    0.23124E-03   -0.41908E-03 15886   0.130E-01    0.459E-01
RMM:  14    -0.163079114911E+03   -0.59929E-03   -0.21930E-03 15333   0.104E-01    0.300E-01
RMM:  15    -0.163079524887E+03   -0.40998E-03   -0.96159E-04 14587   0.741E-02    0.187E-01
RMM:  16    -0.163080012085E+03   -0.48720E-03   -0.39177E-04 14844   0.471E-02    0.107E-01
RMM:  17    -0.163080306110E+03   -0.29402E-03   -0.18846E-04 14125   0.311E-02    0.742E-02
RMM:  18    -0.163080488261E+03   -0.18215E-03   -0.10167E-04 12341   0.241E-02    0.520E-02
RMM:  19    -0.163080552218E+03   -0.63957E-04   -0.64950E-05 10743   0.206E-02    0.228E-02
RMM:  20    -0.163080554984E+03   -0.27660E-05   -0.16959E-05  7491   0.112E-02
   2 F= -.16308055E+03 E0= -.16308336E+03  d E =0.178692E+02  mag=     0.0040
 trial-energy change:   17.869178  1 .order   23.954355  -28.189045   76.097755
 step:   0.3499(harm=  0.2703)  dis= 0.01541  next Energy=  -186.142831 (dE=-0.519E+01)
 bond charge predicted
       N       E                     dE             d eps       ncg     rms          rms(c)
DAV:   1    -0.237614346528E+03   -0.74534E+02   -0.20685E+03 11864   0.169E+02    0.108E+02
RMM:   2    -0.196882540997E+03    0.40732E+02   -0.10359E+02 11086   0.307E+01    0.834E+01
RMM:   3    -0.188761988275E+03    0.81206E+01   -0.25186E+01 11298   0.150E+01    0.535E+01
RMM:   4    -0.187533617312E+03    0.12284E+01   -0.68829E+00 10935   0.796E+00    0.146E+01
RMM:   5    -0.190040549352E+03   -0.25069E+01   -0.26812E+00 11199   0.462E+00    0.221E+01
RMM:   6    -0.186997868022E+03    0.30427E+01   -0.95007E-01 11203   0.271E+00    0.980E+00
RMM:   7    -0.186822815051E+03    0.17505E+00   -0.48355E-01 11276   0.176E+00    0.811E+00
RMM:   8    -0.187040699790E+03   -0.21788E+00   -0.20188E-01 11930   0.112E+00    0.979E+00
RMM:   9    -0.186663136100E+03    0.37756E+00   -0.88478E-02 11614   0.820E-01    0.214E+00
RMM:  10    -0.186686037608E+03   -0.22902E-01   -0.62717E-02 12026   0.616E-01    0.398E+00
RMM:  11    -0.186648638322E+03    0.37399E-01   -0.21880E-02 12263   0.377E-01    0.203E+00
RMM:  12    -0.186643661497E+03    0.49768E-02   -0.18906E-02 11592   0.347E-01    0.189E+00
RMM:  13    -0.186630889112E+03    0.12772E-01   -0.86089E-03 11601   0.247E-01    0.677E-01
RMM:  14    -0.186629434025E+03    0.14551E-02   -0.35125E-03 12476   0.144E-01    0.553E-01
RMM:  15    -0.186629647661E+03   -0.21364E-03   -0.16787E-03 11475   0.108E-01    0.508E-01
RMM:  16    -0.186628579104E+03    0.10686E-02   -0.80768E-04 11536   0.747E-02    0.210E-01
RMM:  17    -0.186628558699E+03    0.20405E-04   -0.18301E-04 11904   0.324E-02    0.204E-01
RMM:  18    -0.186628509288E+03    0.49411E-04   -0.43632E-05  8991   0.164E-02    0.204E-01
RMM:  19    -0.186628393127E+03    0.11616E-03   -0.17280E-04 10622   0.341E-02    0.207E-01
RMM:  20    -0.186628417103E+03   -0.23975E-04   -0.18343E-04 10331   0.352E-02    0.219E-01
RMM:  21    -0.186628367501E+03    0.49601E-04   -0.59846E-05  9397   0.215E-02    0.168E-01
RMM:  22    -0.186628336051E+03    0.31450E-04   -0.19810E-05  6844   0.134E-02    0.132E-01
RMM:  23    -0.186628334967E+03    0.10840E-05   -0.52955E-06  6327   0.853E-03
   3 F= -.18662833E+03 E0= -.18661878E+03  d E =-.567860E+01  mag=     0.0138
 curvature:  -0.13 expect dE=-0.243E+00 dE for cont linesearch -0.108E+00
 ZBRENT: interpolating
 opt :   0.3883  next Energy=  -186.719610 (dE=-0.577E+01)
 bond charge predicted
       N       E                     dE             d eps       ncg     rms          rms(c)
DAV:   1    -0.186927931011E+03   -0.29959E+00   -0.70909E+00 12176   0.100E+01    0.561E+00
RMM:   2    -0.186772122853E+03    0.15581E+00   -0.36617E-01 10932   0.189E+00    0.329E+00
RMM:   3    -0.187039873846E+03   -0.26775E+00   -0.22908E-01 10908   0.139E+00    0.873E+00
RMM:   4    -0.186777074125E+03    0.26280E+00   -0.60913E-02 10918   0.761E-01    0.187E+00
RMM:   5    -0.186788688982E+03   -0.11615E-01   -0.38626E-02 11094   0.534E-01    0.331E+00
RMM:   6    -0.186757505258E+03    0.31184E-01   -0.13322E-02 11135   0.323E-01    0.186E+00
RMM:   7    -0.186746909591E+03    0.10596E-01   -0.94705E-03 11132   0.253E-01    0.990E-01
RMM:   8    -0.186742476755E+03    0.44328E-02   -0.19824E-03 11252   0.131E-01    0.510E-01
RMM:   9    -0.186742199273E+03    0.27748E-03   -0.32907E-04 12101   0.478E-02    0.468E-01
RMM:  10    -0.186742207566E+03   -0.82932E-05   -0.60419E-05 10101   0.167E-02
   4 F= -.18674221E+03 E0= -.18673411E+03  d E =-.579247E+01  mag=     0.0745
 curvature:  -0.11 expect dE=-0.107E+00 dE for cont linesearch -0.384E-04
 trial: gam= 0.03009 g(F)=  0.726E+00 g(S)=  0.220E+00 ort = 0.978E-01 (trialstep = 0.878E+00)
 search vector abs. value=  0.977E+00
 bond charge predicted
       N       E                     dE             d eps       ncg     rms          rms(c)
DAV:   1    -0.186459250337E+03    0.28295E+00   -0.14632E+02 10880   0.348E+01    0.554E+00
RMM:   2    -0.186681279731E+03   -0.22203E+00   -0.40959E+00 10892   0.724E+00    0.475E+00
RMM:   3    -0.187002987265E+03   -0.32171E+00   -0.46300E-01 12337   0.192E+00    0.964E+00
RMM:   4    -0.186637579139E+03    0.36541E+00   -0.10380E-01 11578   0.861E-01    0.273E+00
RMM:   5    -0.186758457798E+03   -0.12088E+00   -0.10238E-01 11228   0.822E-01    0.628E+00
RMM:   6    -0.186629950902E+03    0.12851E+00   -0.56834E-02 11265   0.623E-01    0.293E+00
RMM:   7    -0.186598849022E+03    0.31102E-01   -0.38100E-02 11454   0.499E-01    0.156E+00
RMM:   8    -0.186590280910E+03    0.85681E-02   -0.61592E-03 11650   0.225E-01    0.136E+00
RMM:   9    -0.186585997174E+03    0.42837E-02   -0.16095E-03 12581   0.105E-01    0.792E-01
RMM:  10    -0.186585138452E+03    0.85872E-03   -0.87226E-04 12674   0.711E-02    0.559E-01
RMM:  11    -0.186585390418E+03   -0.25197E-03   -0.36451E-04 12481   0.458E-02    0.541E-01
RMM:  12    -0.186585542252E+03   -0.15183E-03   -0.87745E-05 11530   0.212E-02    0.533E-01
RMM:  13    -0.186584512008E+03    0.10302E-02   -0.40172E-04 11111   0.529E-02    0.495E-01
RMM:  14    -0.186582160588E+03    0.23514E-02   -0.28854E-03 10720   0.145E-01    0.423E-01
RMM:  15    -0.186582024135E+03    0.13645E-03   -0.10404E-03 10747   0.895E-02    0.405E-01
RMM:  16    -0.186581891036E+03    0.13310E-03   -0.64350E-04 10689   0.663E-02    0.354E-01
RMM:  17    -0.186581942545E+03   -0.51509E-04   -0.16751E-04 10584   0.378E-02    0.286E-01
RMM:  18    -0.186582237467E+03   -0.29492E-03   -0.40355E-04 10446   0.534E-02    0.246E-01
RMM:  19    -0.186582147800E+03    0.89667E-04   -0.34231E-04 10389   0.516E-02    0.273E-01
RMM:  20    -0.186581806658E+03    0.34114E-03   -0.70819E-04 10688   0.689E-02    0.280E-01
RMM:  21    -0.186581454375E+03    0.35228E-03   -0.10987E-03 10699   0.847E-02    0.240E-01
RMM:  22    -0.186581346779E+03    0.10760E-03   -0.41254E-04 10386   0.559E-02    0.154E-01
RMM:  23    -0.186581325866E+03    0.20913E-04   -0.93614E-05 10116   0.276E-02    0.113E-01
RMM:  24    -0.186581313865E+03    0.12001E-04   -0.69653E-05  9975   0.227E-02    0.822E-02
RMM:  25    -0.186581327696E+03   -0.13831E-04   -0.77624E-06  6300   0.111E-02    0.740E-02
RMM:  26    -0.186581324291E+03    0.34051E-05   -0.33958E-06  6102   0.665E-03
   5 F= -.18658132E+03 E0= -.18657933E+03  d E =0.160883E+00  mag=     0.0738
 trial-energy change:    0.160883  1 .order   -0.348109   -0.832728    0.136510
 step:   0.7540(harm=  0.7540)  dis= 0.02452  next Energy=  -187.099930 (dE=-0.358E+00)
 bond charge predicted
       N       E                     dE             d eps       ncg     rms          rms(c)
DAV:   1    -0.186582196402E+03   -0.86871E-03   -0.29276E+00 11232   0.492E+00    0.753E-01
RMM:   2    -0.186586446130E+03   -0.42497E-02   -0.82614E-02 10887   0.103E+00    0.590E-01
RMM:   3    -0.186592501676E+03   -0.60555E-02   -0.87261E-03 12568   0.264E-01    0.143E+00
RMM:   4    -0.186586093949E+03    0.64077E-02   -0.19155E-03 11609   0.119E-01    0.460E-01
RMM:   5    -0.186586822070E+03   -0.72812E-03   -0.24945E-03 11282   0.124E-01    0.640E-01
RMM:   6    -0.186585289533E+03    0.15325E-02   -0.14634E-03 11082   0.102E-01    0.365E-01
RMM:   7    -0.186585059686E+03    0.22985E-03   -0.38415E-04 11396   0.506E-02    0.279E-01
RMM:   8    -0.186584902392E+03    0.15729E-03   -0.13493E-04 10480   0.305E-02    0.165E-01
RMM:   9    -0.186584874923E+03    0.27468E-04   -0.15046E-05  7070   0.117E-02    0.155E-01
RMM:  10    -0.186584850171E+03    0.24752E-04   -0.30279E-05  7718   0.157E-02    0.166E-01
RMM:  11    -0.186584800664E+03    0.49507E-04   -0.12976E-04 10233   0.299E-02    0.179E-01
RMM:  12    -0.186584803317E+03   -0.26533E-05   -0.30989E-04 10542   0.441E-02    0.288E-01
RMM:  13    -0.186584818834E+03   -0.15517E-04   -0.84541E-05  9488   0.254E-02    0.298E-01
RMM:  14    -0.186584795190E+03    0.23644E-04   -0.36717E-05  8114   0.162E-02    0.304E-01
RMM:  15    -0.186584847240E+03   -0.52050E-04   -0.54121E-05  9167   0.192E-02    0.349E-01
RMM:  16    -0.186584845037E+03    0.22027E-05   -0.88676E-06  6303   0.102E-02
   6 F= -.18658485E+03 E0= -.18658205E+03  d E =0.157363E+00  mag=     0.0783
 curvature:  -0.39 expect dE=-0.182E+00 dE for cont linesearch -0.900E-03
 trial: gam= 0.54910 g(F)=  0.416E+00 g(S)=  0.527E-01 ort =-0.476E-01 (trialstep = 0.853E+00)
 search vector abs. value=  0.711E+00
 bond charge predicted
       N       E                     dE             d eps       ncg     rms          rms(c)
DAV:   1    -0.186564190552E+03    0.20657E-01   -0.11710E+02 10880   0.320E+01    0.399E+00
RMM:   2    -0.186935900353E+03   -0.37171E+00   -0.34525E+00 10932   0.597E+00    0.576E+00
RMM:   3    -0.186954851837E+03   -0.18951E-01   -0.24997E-01 11761   0.173E+00    0.600E+00
RMM:   4    -0.186836936560E+03    0.11792E+00   -0.56205E-02 12997   0.635E-01    0.201E+00
RMM:   5    -0.186840340902E+03   -0.34043E-02   -0.37333E-02 12574   0.472E-01    0.223E+00
RMM:   6    -0.186842843697E+03   -0.25028E-02   -0.24829E-02 12269   0.400E-01    0.251E+00
RMM:   7    -0.186841177892E+03    0.16658E-02   -0.15692E-02 12223   0.315E-01    0.216E+00
RMM:   8    -0.186820972528E+03    0.20205E-01   -0.87293E-03 12000   0.248E-01    0.535E-01
RMM:   9    -0.186819351822E+03    0.16207E-02   -0.14890E-03 13490   0.936E-02    0.458E-01
RMM:  10    -0.186819005850E+03    0.34597E-03   -0.45437E-04 13772   0.484E-02    0.353E-01
RMM:  11    -0.186818744317E+03    0.26153E-03   -0.32286E-04 12482   0.434E-02    0.234E-01
RMM:  12    -0.186818617365E+03    0.12695E-03   -0.16375E-04 12200   0.311E-02    0.136E-01
RMM:  13    -0.186818623435E+03   -0.60698E-05   -0.80426E-05 11635   0.212E-02
   7 F= -.18681862E+03 E0= -.18681750E+03  d E =-.233778E+00  mag=     0.1742
 trial-energy change:   -0.233778  1 .order   -0.218834   -0.377105   -0.060562
 step:   0.9762(harm=  1.0161)  dis= 0.03705  next Energy=  -186.823044 (dE=-0.238E+00)
 bond charge predicted
       N       E                     dE             d eps       ncg     rms          rms(c)
DAV:   1    -0.186817457529E+03    0.11598E-02   -0.24427E+00 11360   0.461E+00    0.571E-01
RMM:   2    -0.186825578717E+03   -0.81212E-02   -0.70859E-02 10949   0.873E-01    0.890E-01
RMM:   3    -0.186825252312E+03    0.32641E-03   -0.52149E-03 12222   0.242E-01    0.808E-01
RMM:   4    -0.186823324095E+03    0.19282E-02   -0.11933E-03 12888   0.908E-02    0.316E-01
RMM:   5    -0.186824666130E+03   -0.13420E-02   -0.12860E-03 11938   0.885E-02    0.640E-01
RMM:   6    -0.186823848273E+03    0.81786E-03   -0.68115E-04 11852   0.680E-02    0.404E-01
RMM:   7    -0.186823452670E+03    0.39560E-03   -0.50087E-04 11309   0.567E-02    0.240E-01
RMM:   8    -0.186823391877E+03    0.60793E-04   -0.19824E-04 11045   0.360E-02    0.154E-01
RMM:   9    -0.186823336304E+03    0.55573E-04   -0.32869E-05  7853   0.180E-02    0.172E-01
RMM:  10    -0.186823228134E+03    0.10817E-03   -0.38869E-05  8333   0.185E-02    0.154E-01
RMM:  11    -0.186822965195E+03    0.26294E-03   -0.18813E-04 10184   0.366E-02    0.140E-01
RMM:  12    -0.186822687534E+03    0.27766E-03   -0.72776E-04 10592   0.717E-02    0.168E-01
RMM:  13    -0.186822704467E+03   -0.16933E-04   -0.34810E-04 10304   0.508E-02    0.153E-01
RMM:  14    -0.186822717870E+03   -0.13403E-04   -0.87074E-05  9814   0.299E-02    0.764E-02
RMM:  15    -0.186822775212E+03   -0.57342E-04   -0.68731E-05  9812   0.231E-02    0.776E-02
RMM:  16    -0.186822777799E+03   -0.25870E-05   -0.42462E-06  6068   0.914E-03
   8 F= -.18682278E+03 E0= -.18682181E+03  d E =-.237933E+00  mag=     0.2244
 curvature:  -0.77 expect dE=-0.260E+00 dE for cont linesearch -0.127E-02
 trial: gam= 0.91785 g(F)=  0.290E+00 g(S)=  0.489E-01 ort =-0.342E-01 (trialstep = 0.713E+00)
 search vector abs. value=  0.875E+00
 bond charge predicted
       N       E                     dE             d eps       ncg     rms          rms(c)
DAV:   1    -0.186779200754E+03    0.43574E-01   -0.87468E+01 10880   0.283E+01    0.346E+00
RMM:   2    -0.186951150667E+03   -0.17195E+00   -0.25952E+00 10904   0.521E+00    0.230E+00
RMM:   3    -0.186981960700E+03   -0.30810E-01   -0.16462E-01 12526   0.139E+00    0.395E+00
RMM:   4    -0.186942807600E+03    0.39153E-01   -0.34595E-02 13222   0.497E-01    0.226E+00
RMM:   5    -0.186935864705E+03    0.69429E-02   -0.31430E-02 12337   0.449E-01    0.184E+00
RMM:   6    -0.186930837994E+03    0.50267E-02   -0.12445E-02 12241   0.289E-01    0.166E+00
RMM:   7    -0.186927578218E+03    0.32598E-02   -0.83902E-03 12300   0.230E-01    0.116E+00
RMM:   8    -0.186920634082E+03    0.69441E-02   -0.35283E-03 12175   0.157E-01    0.294E-01
RMM:   9    -0.186920734058E+03   -0.99975E-04   -0.88866E-04 13832   0.676E-02    0.438E-01
RMM:  10    -0.186920208816E+03    0.52524E-03   -0.42159E-04 13127   0.486E-02    0.174E-01
RMM:  11    -0.186920192701E+03    0.16114E-04   -0.28007E-04 12723   0.399E-02    0.138E-01
RMM:  12    -0.186920166437E+03    0.26264E-04   -0.12371E-04 11445   0.277E-02    0.100E-01
RMM:  13    -0.186920170789E+03   -0.43517E-05   -0.66710E-05 10912   0.194E-02
   9 F= -.18692017E+03 E0= -.18691964E+03  d E =-.973930E-01  mag=     0.4101
 trial-energy change:   -0.097393  1 .order   -0.116029   -0.219228   -0.012830
 step:   0.8339(harm=  0.7573)  dis= 0.03048  next Energy=  -186.921168 (dE=-0.984E-01)
 bond charge predicted
       N       E                     dE             d eps       ncg     rms          rms(c)
DAV:   1    -0.186915257230E+03    0.49092E-02   -0.25164E+00 11024   0.479E+00    0.585E-01
RMM:   2    -0.186920179419E+03   -0.49222E-02   -0.73340E-02 10895   0.882E-01    0.427E-01
RMM:   3    -0.186923183968E+03   -0.30045E-02   -0.50393E-03 12190   0.244E-01    0.101E+00
RMM:   4    -0.186919829626E+03    0.33543E-02   -0.13641E-03 12547   0.101E-01    0.309E-01
RMM:   5    -0.186920021862E+03   -0.19224E-03   -0.11212E-03 12057   0.850E-02    0.383E-01
RMM:   6    -0.186919569967E+03    0.45189E-03   -0.52824E-04 11954   0.595E-02    0.263E-01
RMM:   7    -0.186919541578E+03    0.28389E-04   -0.25613E-04 11613   0.394E-02    0.217E-01
RMM:   8    -0.186919414381E+03    0.12720E-03   -0.10496E-04 10947   0.275E-02    0.107E-01
RMM:   9    -0.186919422684E+03   -0.83034E-05   -0.21427E-05  7432   0.123E-02
  10 F= -.18691942E+03 E0= -.18691899E+03  d E =-.966449E-01  mag=     0.5326
 curvature:   2.15 expect dE= 0.931E+00 dE for cont linesearch  0.495E-02
 trial: gam= 0.98339 g(F)=  0.346E+00 g(S)=  0.876E-01 ort =-0.449E-01 (trialstep = 0.541E+00)
 search vector abs. value=  0.119E+01
 bond charge predicted
       N       E                     dE             d eps       ncg     rms          rms(c)
DAV:   1    -0.186887926761E+03    0.31488E-01   -0.69310E+01 10880   0.255E+01    0.305E+00
RMM:   2    -0.187058370368E+03   -0.17044E+00   -0.21370E+00 10880   0.475E+00    0.439E+00
RMM:   3    -0.187057791299E+03    0.57907E-03   -0.15442E-01 11431   0.139E+00    0.419E+00
RMM:   4    -0.186989826801E+03    0.67964E-01   -0.61540E-02 11324   0.679E-01    0.144E+00
RMM:   5    -0.186993102525E+03   -0.32757E-02   -0.27603E-02 11560   0.432E-01    0.177E+00
RMM:   6    -0.186982465212E+03    0.10637E-01   -0.10974E-02 11859   0.272E-01    0.112E+00
RMM:   7    -0.186983493430E+03   -0.10282E-02   -0.53167E-03 12246   0.178E-01    0.121E+00
RMM:   8    -0.186977895465E+03    0.55980E-02   -0.37901E-03 12072   0.158E-01    0.349E-01
RMM:   9    -0.186977878537E+03    0.16928E-04   -0.10683E-03 13962   0.818E-02    0.432E-01
RMM:  10    -0.186977360544E+03    0.51799E-03   -0.44567E-04 13773   0.509E-02    0.183E-01
RMM:  11    -0.186977267605E+03    0.92939E-04   -0.26273E-04 13539   0.373E-02    0.107E-01
RMM:  12    -0.186977285974E+03   -0.18368E-04   -0.13032E-04 11337   0.285E-02    0.110E-01
RMM:  13    -0.186977272200E+03    0.13774E-04   -0.82342E-05 11169   0.231E-02    0.803E-02
RMM:  14    -0.186977275088E+03   -0.28876E-05   -0.26509E-05  7811   0.144E-02
  11 F= -.18697728E+03 E0= -.18697880E+03  d E =-.578524E-01  mag=     0.5641
 trial-energy change:   -0.057852  1 .order   -0.080393   -0.210839    0.050053
 step:   0.3784(harm=  0.4374)  dis= 0.01679  next Energy=  -186.985420 (dE=-0.660E-01)
 bond charge predicted
       N       E                     dE             d eps       ncg     rms          rms(c)
DAV:   1    -0.186979311864E+03   -0.20397E-02   -0.62663E+00 10880   0.764E+00    0.989E-01
RMM:   2    -0.186996468353E+03   -0.17156E-01   -0.20116E-01 10880   0.146E+00    0.154E+00
RMM:   3    -0.186995183110E+03    0.12852E-02   -0.14588E-02 11355   0.430E-01    0.134E+00
RMM:   4    -0.186988134177E+03    0.70489E-02   -0.53379E-03 11301   0.202E-01    0.420E-01
RMM:   5    -0.186988786885E+03   -0.65271E-03   -0.25766E-03 11675   0.132E-01    0.613E-01
RMM:   6    -0.186987639788E+03    0.11471E-02   -0.98562E-04 11857   0.810E-02    0.382E-01
RMM:   7    -0.186987273644E+03    0.36614E-03   -0.46413E-04 12032   0.535E-02    0.227E-01
RMM:   8    -0.186987129327E+03    0.14432E-03   -0.29684E-04 12763   0.413E-02    0.949E-02
RMM:   9    -0.186987177938E+03   -0.48611E-04   -0.94200E-05 11908   0.247E-02    0.970E-02
RMM:  10    -0.186987222150E+03   -0.44213E-04   -0.35346E-05  8417   0.161E-02    0.107E-01
RMM:  11    -0.186987247889E+03   -0.25739E-04   -0.30042E-05  7406   0.161E-02    0.886E-02
RMM:  12    -0.186987272850E+03   -0.24961E-04   -0.17012E-05  6429   0.138E-02    0.801E-02
RMM:  13    -0.186987280391E+03   -0.75410E-05   -0.60784E-06  6211   0.931E-03
  12 F= -.18698728E+03 E0= -.18698826E+03  d E =-.678577E-01  mag=     0.5991
 curvature:  -0.45 expect dE=-0.210E+00 dE for cont linesearch -0.530E-04
 trial: gam= 0.57317 g(F)=  0.408E+00 g(S)=  0.561E-01 ort = 0.118E-01 (trialstep = 0.509E+00)
 search vector abs. value=  0.869E+00
 bond charge predicted
       N       E                     dE             d eps       ncg     rms          rms(c)
DAV:   1    -0.187019827794E+03   -0.32555E-01   -0.45520E+01 10880   0.188E+01    0.251E+00
RMM:   2    -0.187113579080E+03   -0.93751E-01   -0.12205E+00 10889   0.371E+00    0.277E+00
RMM:   3    -0.187149831375E+03   -0.36252E-01   -0.11072E-01 11854   0.105E+00    0.436E+00
RMM:   4    -0.187086998170E+03    0.62833E-01   -0.25949E-02 11479   0.439E-01    0.137E+00
RMM:   5    -0.187090843741E+03   -0.38456E-02   -0.20558E-02 11284   0.365E-01    0.178E+00
RMM:   6    -0.187086144167E+03    0.46996E-02   -0.15756E-02 11300   0.317E-01    0.158E+00
RMM:   7    -0.187087194197E+03   -0.10500E-02   -0.87516E-03 11493   0.239E-01    0.151E+00
RMM:   8    -0.187077038628E+03    0.10156E-01   -0.37074E-03 11482   0.165E-01    0.357E-01
RMM:   9    -0.187076397540E+03    0.64109E-03   -0.64639E-04 11761   0.629E-02    0.304E-01
RMM:  10    -0.187076309471E+03    0.88070E-04   -0.21492E-04 11568   0.332E-02    0.271E-01
RMM:  11    -0.187076197087E+03    0.11238E-03   -0.18254E-04 10544   0.325E-02    0.187E-01
RMM:  12    -0.187076103682E+03    0.93405E-04   -0.10760E-04 10012   0.250E-02    0.971E-02
RMM:  13    -0.187076085850E+03    0.17832E-04   -0.20659E-05  6735   0.135E-02    0.614E-02
RMM:  14    -0.187076084058E+03    0.17928E-05   -0.91662E-06  6380   0.114E-02
  13 F= -.18707608E+03 E0= -.18707909E+03  d E =-.888037E-01  mag=     0.4995
 trial-energy change:   -0.088804  1 .order   -0.102156   -0.239423    0.035112
 step:   0.4228(harm=  0.4436)  dis= 0.02729  next Energy=  -187.079113 (dE=-0.918E-01)
 bond charge predicted
       N       E                     dE             d eps       ncg     rms          rms(c)
DAV:   1    -0.187079056240E+03   -0.29704E-02   -0.12966E+00 11072   0.318E+00    0.462E-01
RMM:   2    -0.187081660465E+03   -0.26042E-02   -0.35916E-02 10884   0.640E-01    0.414E-01
RMM:   3    -0.187083554890E+03   -0.18944E-02   -0.34195E-03 11767   0.181E-01    0.858E-01
RMM:   4    -0.187081092244E+03    0.24626E-02   -0.89760E-04 11221   0.823E-02    0.229E-01
RMM:   5    -0.187081161837E+03   -0.69593E-04   -0.65345E-04 11027   0.655E-02    0.290E-01
RMM:   6    -0.187080946737E+03    0.21510E-03   -0.43115E-04 10997   0.522E-02    0.216E-01
RMM:   7    -0.187081060290E+03   -0.11355E-03   -0.20984E-04 10162   0.369E-02    0.258E-01
RMM:   8    -0.187080793071E+03    0.26722E-03   -0.87988E-05  9485   0.264E-02    0.676E-02
RMM:   9    -0.187080775687E+03    0.17385E-04   -0.15857E-05  6557   0.117E-02    0.493E-02
RMM:  10    -0.187080778695E+03   -0.30079E-05   -0.10461E-05  6315   0.113E-02
  14 F= -.18708078E+03 E0= -.18708354E+03  d E =-.934983E-01  mag=     0.4606
 curvature:  -0.37 expect dE=-0.157E+00 dE for cont linesearch -0.230E-03
 trial: gam= 1.03501 g(F)=  0.388E+00 g(S)=  0.397E-01 ort =-0.233E-01 (trialstep = 0.326E+00)
 search vector abs. value=  0.131E+01
 bond charge predicted
       N       E                     dE             d eps       ncg     rms          rms(c)
DAV:   1    -0.187111346056E+03   -0.30570E-01   -0.27331E+01 10880   0.150E+01    0.208E+00
RMM:   2    -0.187158327586E+03   -0.46982E-01   -0.78128E-01 10889   0.294E+00    0.228E+00
RMM:   3    -0.187193204214E+03   -0.34877E-01   -0.75350E-02 11655   0.848E-01    0.391E+00
RMM:   4    -0.187138250466E+03    0.54954E-01   -0.25027E-02 11413   0.431E-01    0.839E-01
RMM:   5    -0.187136129045E+03    0.21214E-02   -0.11099E-02 11416   0.272E-01    0.104E+00
RMM:   6    -0.187133166281E+03    0.29628E-02   -0.47373E-03 11641   0.172E-01    0.767E-01
RMM:   7    -0.187133916228E+03   -0.74995E-03   -0.27850E-03 11823   0.131E-01    0.838E-01
RMM:   8    -0.187131046464E+03    0.28698E-02   -0.14037E-03 11657   0.101E-01    0.228E-01
RMM:   9    -0.187130930735E+03    0.11573E-03   -0.50404E-04 13315   0.521E-02    0.223E-01
RMM:  10    -0.187130868273E+03    0.62462E-04   -0.97597E-05 10674   0.267E-02    0.179E-01
RMM:  11    -0.187130769794E+03    0.98479E-04   -0.87363E-05 10747   0.228E-02    0.831E-02
RMM:  12    -0.187130759233E+03    0.10561E-04   -0.29240E-05  7871   0.155E-02    0.619E-02
RMM:  13    -0.187130754218E+03    0.50150E-05   -0.16486E-05  6603   0.134E-02
  15 F= -.18713075E+03 E0= -.18713418E+03  d E =-.499755E-01  mag=     0.3741
 trial-energy change:   -0.049976  1 .order   -0.069891   -0.131628   -0.008154
 step:   0.3474(harm=  0.3474)  dis= 0.01899  next Energy=  -187.150939 (dE=-0.702E-01)
 bond charge predicted
       N       E                     dE             d eps       ncg     rms          rms(c)
DAV:   1    -0.187130236325E+03    0.52291E-03   -0.11924E-01 11616   0.989E-01    0.142E-01
RMM:   2    -0.187130523739E+03   -0.28741E-03   -0.34708E-03 10885   0.196E-01    0.209E-01
RMM:   3    -0.187130563875E+03   -0.40136E-04   -0.34738E-04 11406   0.588E-02    0.241E-01
RMM:   4    -0.187130357400E+03    0.20648E-03   -0.11396E-04 10462   0.287E-02    0.549E-02
RMM:   5    -0.187130366530E+03   -0.91299E-05   -0.57739E-05  8395   0.203E-02
  16 F= -.18713037E+03 E0= -.18713384E+03  d E =-.495878E-01  mag=     0.3496
 curvature:  -0.56 expect dE=-0.386E+00 dE for cont linesearch -0.988E-03
 trial: gam= 1.40746 g(F)=  0.665E+00 g(S)=  0.204E-01 ort =-0.479E-01 (trialstep = 0.138E+00)
 search vector abs. value=  0.315E+01
 bond charge predicted
       N       E                     dE             d eps       ncg     rms          rms(c)
DAV:   1    -0.187183008507E+03   -0.52651E-01   -0.10942E+01 10880   0.976E+00    0.139E+00
RMM:   2    -0.187197960817E+03   -0.14952E-01   -0.31985E-01 10886   0.188E+00    0.100E+00
RMM:   3    -0.187221214697E+03   -0.23254E-01   -0.29799E-02 11634   0.529E-01    0.272E+00
RMM:   4    -0.187195294133E+03    0.25921E-01   -0.99737E-03 11368   0.276E-01    0.713E-01
RMM:   5    -0.187194265566E+03    0.10286E-02   -0.48961E-03 11596   0.179E-01    0.752E-01
RMM:   6    -0.187192343734E+03    0.19218E-02   -0.15632E-03 11676   0.100E-01    0.450E-01
RMM:   7    -0.187192076291E+03    0.26744E-03   -0.78628E-04 11815   0.703E-02    0.399E-01
RMM:   8    -0.187191493648E+03    0.58264E-03   -0.49087E-04 12157   0.567E-02    0.120E-01
RMM:   9    -0.187191480011E+03    0.13637E-04   -0.17882E-04 13137   0.322E-02    0.103E-01
RMM:  10    -0.187191473145E+03    0.68654E-05   -0.47606E-05  9115   0.182E-02
  17 F= -.18719147E+03 E0= -.18719496E+03  d E =-.611066E-01  mag=     0.3115
 trial-energy change:   -0.061107  1 .order   -0.051992   -0.084928   -0.019056
 step:   0.1579(harm=  0.1773)  dis= 0.01708  next Energy=  -187.192914 (dE=-0.625E-01)
 bond charge predicted
       N       E                     dE             d eps       ncg     rms          rms(c)
DAV:   1    -0.187193838538E+03   -0.23585E-02   -0.23936E-01 11248   0.144E+00    0.217E-01
RMM:   2    -0.187194629021E+03   -0.79048E-03   -0.73744E-03 10885   0.285E-01    0.371E-01
RMM:   3    -0.187194484544E+03    0.14448E-03   -0.68419E-04 11514   0.819E-02    0.310E-01
RMM:   4    -0.187194181012E+03    0.30353E-03   -0.25354E-04 11273   0.429E-02    0.137E-01
RMM:   5    -0.187194103219E+03    0.77793E-04   -0.10717E-04  9851   0.274E-02    0.871E-02
RMM:   6    -0.187194120265E+03   -0.17046E-04   -0.50798E-05  8837   0.185E-02    0.115E-01
RMM:   7    -0.187194078224E+03    0.42041E-04   -0.24782E-05  7249   0.157E-02    0.477E-02
RMM:   8    -0.187194072335E+03    0.58894E-05   -0.14612E-05  6348   0.130E-02
  18 F= -.18719407E+03 E0= -.18719753E+03  d E =-.637058E-01  mag=     0.2930
 curvature:  -0.34 expect dE=-0.211E+00 dE for cont linesearch -0.247E-02
 ZBRENT: increasing intervall
 opt :   0.1986  next Energy=  -187.200675 (dE=-0.703E-01)
 bond charge predicted
       N       E                     dE             d eps       ncg     rms          rms(c)
DAV:   1    -0.187197485086E+03   -0.34069E-02   -0.95756E-01 10912   0.289E+00    0.406E-01
RMM:   2    -0.187199226551E+03   -0.17415E-02   -0.28553E-02 10886   0.561E-01    0.443E-01
RMM:   3    -0.187200726045E+03   -0.14995E-02   -0.26982E-03 11640   0.161E-01    0.790E-01
RMM:   4    -0.187198515902E+03    0.22101E-02   -0.86845E-04 11405   0.817E-02    0.160E-01
RMM:   5    -0.187198578706E+03   -0.62804E-04   -0.38577E-04 11297   0.516E-02    0.278E-01
RMM:   6    -0.187198370070E+03    0.20864E-03   -0.14034E-04 10887   0.296E-02    0.151E-01
RMM:   7    -0.187198298137E+03    0.71933E-04   -0.10049E-04  9499   0.258E-02    0.909E-02
RMM:   8    -0.187198265932E+03    0.32204E-04   -0.50922E-05  9097   0.196E-02    0.366E-02
RMM:   9    -0.187198267100E+03   -0.11679E-05   -0.15138E-05  6411   0.123E-02
  19 F= -.18719827E+03 E0= -.18720166E+03  d E =-.679006E-01  mag=     0.2769
 curvature:  -0.92 expect dE=-0.503E+00 dE for cont linesearch -0.851E-03
 trial: gam= 0.29510 g(F)=  0.534E+00 g(S)=  0.139E-01 ort = 0.540E-01 (trialstep = 0.150E+00)
 search vector abs. value=  0.853E+00
 bond charge predicted
       N       E                     dE             d eps       ncg     rms          rms(c)
DAV:   1    -0.187255875585E+03   -0.57610E-01   -0.33585E+00 10880   0.500E+00    0.689E-01
RMM:   2    -0.187265135440E+03   -0.92599E-02   -0.10873E-01 10885   0.109E+00    0.952E-01
RMM:   3    -0.187266702654E+03   -0.15672E-02   -0.11358E-02 12742   0.303E-01    0.109E+00
RMM:   4    -0.187261927548E+03    0.47751E-02   -0.29803E-03 11540   0.148E-01    0.301E-01
RMM:   5    -0.187262391940E+03   -0.46439E-03   -0.15582E-03 11416   0.107E-01    0.543E-01
RMM:   6    -0.187261484871E+03    0.90707E-03   -0.59951E-04 11725   0.636E-02    0.273E-01
RMM:   7    -0.187261353738E+03    0.13113E-03   -0.43808E-04 11527   0.528E-02    0.212E-01
RMM:   8    -0.187261180747E+03    0.17299E-03   -0.16847E-04 11258   0.338E-02    0.836E-02
RMM:   9    -0.187261167108E+03    0.13639E-04   -0.52299E-05  9686   0.179E-02    0.768E-02
RMM:  10    -0.187261160878E+03    0.62297E-05   -0.16724E-05  6614   0.130E-02
  20 F= -.18726116E+03 E0= -.18726440E+03  d E =-.628938E-01  mag=     0.2591
 trial-energy change:   -0.062894  1 .order   -0.065800   -0.084377   -0.047224
 step:   0.3401(harm=  0.3401)  dis= 0.01941  next Energy=  -187.294080 (dE=-0.958E-01)
 bond charge predicted
       N       E                     dE             d eps       ncg     rms          rms(c)
DAV:   1    -0.187305165877E+03   -0.43999E-01   -0.54128E+00 10880   0.635E+00    0.863E-01
RMM:   2    -0.187319385526E+03   -0.14220E-01   -0.17598E-01 10886   0.138E+00    0.111E+00
RMM:   3    -0.187322866585E+03   -0.34811E-02   -0.18135E-02 12765   0.381E-01    0.139E+00
RMM:   4    -0.187315107301E+03    0.77593E-02   -0.48081E-03 11581   0.189E-01    0.404E-01
RMM:   5    -0.187315167748E+03   -0.60447E-04   -0.22053E-03 11549   0.128E-01    0.561E-01
RMM:   6    -0.187314293579E+03    0.87417E-03   -0.75535E-04 11986   0.697E-02    0.317E-01
RMM:   7    -0.187314316807E+03   -0.23228E-04   -0.69111E-04 11751   0.645E-02    0.297E-01
RMM:   8    -0.187313929354E+03    0.38745E-03   -0.26694E-04 11196   0.425E-02    0.968E-02
RMM:   9    -0.187313891575E+03    0.37779E-04   -0.97903E-05 11571   0.223E-02    0.620E-02
RMM:  10    -0.187313910187E+03   -0.18612E-04   -0.22369E-05  7322   0.141E-02    0.984E-02
RMM:  11    -0.187313880678E+03    0.29509E-04   -0.17999E-05  6629   0.143E-02    0.299E-02
RMM:  12    -0.187313880358E+03    0.31941E-06   -0.86968E-06  6350   0.105E-02
  21 F= -.18731388E+03 E0= -.18731710E+03  d E =-.115613E+00  mag=     0.2267
 curvature:  -0.26 expect dE=-0.130E+00 dE for cont linesearch -0.106E-01
 ZBRENT: increasing intervall
 opt :   0.7208  next Energy=  -187.336636 (dE=-0.138E+00)
 bond charge predicted
       N       E                     dE             d eps       ncg     rms          rms(c)
DAV:   1    -0.187280784750E+03    0.33096E-01   -0.21725E+01 10880   0.127E+01    0.167E+00
RMM:   2    -0.187331710432E+03   -0.50926E-01   -0.70018E-01 10888   0.274E+00    0.173E+00
RMM:   3    -0.187350249847E+03   -0.18539E-01   -0.67682E-02 12686   0.743E-01    0.267E+00
RMM:   4    -0.187321795597E+03    0.28454E-01   -0.16136E-02 11607   0.350E-01    0.940E-01
RMM:   5    -0.187322742276E+03   -0.94668E-03   -0.10407E-02 11413   0.271E-01    0.121E+00
RMM:   6    -0.187317796277E+03    0.49460E-02   -0.40553E-03 11627   0.166E-01    0.675E-01
RMM:   7    -0.187317462802E+03    0.33347E-03   -0.24359E-03 11735   0.123E-01    0.640E-01
RMM:   8    -0.187316042989E+03    0.14198E-02   -0.10487E-03 12029   0.838E-02    0.191E-01
RMM:   9    -0.187315920918E+03    0.12207E-03   -0.39483E-04 13108   0.474E-02    0.140E-01
RMM:  10    -0.187315917112E+03    0.38056E-05   -0.16044E-04 10972   0.311E-02    0.123E-01
RMM:  11    -0.187315871212E+03    0.45900E-04   -0.89788E-05 11149   0.235E-02    0.598E-02
RMM:  12    -0.187315868939E+03    0.22728E-05   -0.26408E-05  7980   0.143E-02
  22 F= -.18731587E+03 E0= -.18731963E+03  d E =-.117602E+00  mag=     0.1675
 curvature:  -0.55 expect dE=-0.243E+00 dE for cont linesearch -0.131E-01
 ZBRENT: bracketing found
 ZBRENT: interpolating
 opt :   0.5567  next Energy=  -187.327525 (dE=-0.129E+00)
 bond charge predicted
       N       E                     dE             d eps       ncg     rms          rms(c)
DAV:   1    -0.187325909939E+03   -0.10039E-01   -0.40370E+00 10880   0.544E+00    0.767E-01
RMM:   2    -0.187333843407E+03   -0.79335E-02   -0.12553E-01 10892   0.117E+00    0.558E-01
RMM:   3    -0.187338223758E+03   -0.43804E-02   -0.11558E-02 12441   0.317E-01    0.125E+00
RMM:   4    -0.187332849214E+03    0.53745E-02   -0.23634E-03 11519   0.136E-01    0.425E-01
RMM:   5    -0.187332830436E+03    0.18778E-04   -0.19531E-03 11414   0.112E-01    0.472E-01
RMM:   6    -0.187331766159E+03    0.10643E-02   -0.75575E-04 11763   0.687E-02    0.131E-01
RMM:   7    -0.187331967749E+03   -0.20159E-03   -0.40095E-04 12742   0.473E-02    0.284E-01
RMM:   8    -0.187331713282E+03    0.25447E-03   -0.11298E-04 10669   0.280E-02    0.103E-01
RMM:   9    -0.187331676295E+03    0.36987E-04   -0.69806E-05 10296   0.196E-02    0.484E-02
RMM:  10    -0.187331685507E+03   -0.92119E-05   -0.16037E-05  6681   0.126E-02
  23 F= -.18733169E+03 E0= -.18733531E+03  d E =-.133418E+00  mag=     0.1333
 curvature:  -0.49 expect dE=-0.194E+00 dE for cont linesearch -0.302E-02
 trial: gam= 0.96000 g(F)=  0.373E+00 g(S)=  0.216E-01 ort =-0.724E-01 (trialstep = 0.189E+00)
 search vector abs. value=  0.104E+01
 bond charge predicted
       N       E                     dE             d eps       ncg     rms          rms(c)
DAV:   1    -0.187363261626E+03   -0.31585E-01   -0.64553E+00 10880   0.735E+00    0.114E+00
RMM:   2    -0.187372708297E+03   -0.94467E-02   -0.21755E-01 10883   0.147E+00    0.977E-01
RMM:   3    -0.187386849385E+03   -0.14141E-01   -0.19561E-02 11560   0.449E-01    0.222E+00
RMM:   4    -0.187369551714E+03    0.17298E-01   -0.81602E-03 11069   0.255E-01    0.579E-01
RMM:   5    -0.187369304810E+03    0.24690E-03   -0.37099E-03 11126   0.164E-01    0.659E-01
RMM:   6    -0.187367669609E+03    0.16352E-02   -0.13745E-03 11829   0.940E-02    0.307E-01
RMM:   7    -0.187368313515E+03   -0.64391E-03   -0.64572E-04 11936   0.630E-02    0.529E-01
RMM:   8    -0.187367309665E+03    0.10038E-02   -0.33768E-04 11544   0.504E-02    0.115E-01
RMM:   9    -0.187367282085E+03    0.27581E-04   -0.91574E-05 11829   0.234E-02    0.106E-01
RMM:  10    -0.187367260445E+03    0.21640E-04   -0.25734E-05  8003   0.141E-02    0.761E-02
RMM:  11    -0.187367247578E+03    0.12867E-04   -0.24359E-05  7280   0.147E-02    0.433E-02
RMM:  12    -0.187367245331E+03    0.22465E-05   -0.13541E-05  6579   0.129E-02
  24 F= -.18736725E+03 E0= -.18737094E+03  d E =-.355598E-01  mag=     0.1072
 trial-energy change:   -0.035560  1 .order   -0.033051   -0.061486   -0.004615
 step:   0.2013(harm=  0.2047)  dis= 0.01243  next Energy=  -187.367392 (dE=-0.357E-01)
 bond charge predicted
       N       E                     dE             d eps       ncg     rms          rms(c)
DAV:   1    -0.187367350958E+03   -0.10338E-03   -0.25823E-02 11616   0.465E-01    0.750E-02
RMM:   2    -0.187367399702E+03   -0.48744E-04   -0.88560E-04 10893   0.933E-02    0.730E-02
RMM:   3    -0.187367429861E+03   -0.30158E-04   -0.74959E-05  9873   0.299E-02    0.119E-01
RMM:   4    -0.187367389599E+03    0.40262E-04   -0.30685E-05  7570   0.164E-02    0.503E-02
RMM:   5    -0.187367384207E+03    0.53918E-05   -0.23769E-05  7408   0.159E-02
  25 F= -.18736738E+03 E0= -.18737110E+03  d E =-.356987E-01  mag=     0.0981
 curvature:  -0.31 expect dE=-0.155E+00 dE for cont linesearch -0.267E-04
 trial: gam= 0.58201 g(F)=  0.465E+00 g(S)=  0.307E-01 ort =-0.944E-02 (trialstep = 0.192E+00)
 search vector abs. value=  0.838E+00
 bond charge predicted
       N       E                     dE             d eps       ncg     rms          rms(c)
DAV:   1    -0.187389020680E+03   -0.21631E-01   -0.59597E+00 10880   0.672E+00    0.895E-01
RMM:   2    -0.187399568945E+03   -0.10548E-01   -0.16411E-01 10880   0.138E+00    0.593E-01
RMM:   3    -0.187401791647E+03   -0.22227E-02   -0.16074E-02 12200   0.362E-01    0.851E-01
RMM:   4    -0.187399137871E+03    0.26538E-02   -0.38514E-03 11456   0.165E-01    0.684E-01
RMM:   5    -0.187398828436E+03    0.30943E-03   -0.16096E-03 11638   0.975E-02    0.597E-01
RMM:   6    -0.187397331316E+03    0.14971E-02   -0.12356E-03 11253   0.866E-02    0.187E-01
RMM:   7    -0.187397327915E+03    0.34018E-05   -0.68138E-04 12397   0.621E-02    0.228E-01
RMM:   8    -0.187397229118E+03    0.98797E-04   -0.14177E-04 10555   0.340E-02    0.176E-01
RMM:   9    -0.187397109845E+03    0.11927E-03   -0.10262E-04 10245   0.243E-02    0.485E-02
RMM:  10    -0.187397107105E+03    0.27400E-05   -0.21569E-05  7113   0.147E-02
  26 F= -.18739711E+03 E0= -.18740070E+03  d E =-.297229E-01  mag=     0.0846
 trial-energy change:   -0.029723  1 .order   -0.028670   -0.093990    0.036650
 step:   0.1398(harm=  0.1380)  dis= 0.00689  next Energy=  -187.402052 (dE=-0.347E-01)
 bond charge predicted
       N       E                     dE             d eps       ncg     rms          rms(c)
DAV:   1    -0.187401038087E+03   -0.39282E-02   -0.43784E-01 10928   0.182E+00    0.247E-01
RMM:   2    -0.187401975822E+03   -0.93773E-03   -0.12265E-02 10880   0.378E-01    0.252E-01
RMM:   3    -0.187402078702E+03   -0.10288E-03   -0.12830E-03 11789   0.105E-01    0.285E-01
RMM:   4    -0.187401863310E+03    0.21539E-03   -0.26819E-04 11158   0.436E-02    0.229E-01
RMM:   5    -0.187401713890E+03    0.14942E-03   -0.16004E-04  9808   0.327E-02    0.143E-01
RMM:   6    -0.187401630553E+03    0.83337E-04   -0.10749E-04 10248   0.250E-02    0.563E-02
RMM:   7    -0.187401662318E+03   -0.31765E-04   -0.43306E-05  8361   0.186E-02    0.110E-01
RMM:   8    -0.187401620567E+03    0.41751E-04   -0.19801E-05  6672   0.148E-02    0.345E-02
RMM:   9    -0.187401614254E+03    0.63134E-05   -0.69296E-06  5959   0.995E-03
  27 F= -.18740161E+03 E0= -.18740528E+03  d E =-.342300E-01  mag=     0.0702
 curvature:  -0.12 expect dE=-0.557E-01 dE for cont linesearch -0.400E-04
 trial: gam= 0.75209 g(F)=  0.464E+00 g(S)=  0.911E-02 ort = 0.169E-01 (trialstep = 0.156E+00)
 search vector abs. value=  0.972E+00
 bond charge predicted
       N       E                     dE             d eps       ncg     rms          rms(c)
DAV:   1    -0.187424513741E+03   -0.22893E-01   -0.48689E+00 10880   0.580E+00    0.665E-01
RMM:   2    -0.187432913732E+03   -0.84000E-02   -0.11709E-01 10880   0.114E+00    0.642E-01
RMM:   3    -0.187435586525E+03   -0.26728E-02   -0.10430E-02 12396   0.302E-01    0.104E+00
RMM:   4    -0.187431735765E+03    0.38508E-02   -0.20449E-03 11591   0.123E-01    0.445E-01
RMM:   5    -0.187431536352E+03    0.19941E-03   -0.15125E-03 11361   0.973E-02    0.462E-01
RMM:   6    -0.187430649041E+03    0.88731E-03   -0.10458E-03 11258   0.778E-02    0.231E-01
RMM:   7    -0.187431061887E+03   -0.41285E-03   -0.51986E-04 11090   0.569E-02    0.424E-01
RMM:   8    -0.187430455696E+03    0.60619E-03   -0.30540E-04 10969   0.454E-02    0.903E-02
RMM:   9    -0.187430392143E+03    0.63553E-04   -0.64786E-05  9576   0.215E-02    0.442E-02
RMM:  10    -0.187430394045E+03   -0.19016E-05   -0.14677E-05  6610   0.117E-02
  28 F= -.18743039E+03 E0= -.18743389E+03  d E =-.287798E-01  mag=     0.0571
 trial-energy change:   -0.028780  1 .order   -0.034105   -0.075907    0.007697
 step:   0.1348(harm=  0.1418)  dis= 0.00814  next Energy=  -187.430936 (dE=-0.293E-01)
 bond charge predicted
       N       E                     dE             d eps       ncg     rms          rms(c)
DAV:   1    -0.187431225545E+03   -0.83340E-03   -0.92104E-02 11360   0.797E-01    0.985E-02
RMM:   2    -0.187431483272E+03   -0.25773E-03   -0.22279E-03 10880   0.158E-01    0.187E-01
RMM:   3    -0.187431410982E+03    0.72290E-04   -0.21471E-04 11344   0.442E-02    0.123E-01
RMM:   4    -0.187431363167E+03    0.47815E-04   -0.53868E-05  9139   0.199E-02    0.673E-02
RMM:   5    -0.187431347343E+03    0.15823E-04   -0.34314E-05  7881   0.164E-02    0.582E-02
RMM:   6    -0.187431343730E+03    0.36132E-05   -0.22531E-05  7153   0.140E-02
  29 F= -.18743134E+03 E0= -.18743490E+03  d E =-.297295E-01  mag=     0.0485
 curvature:  -0.11 expect dE=-0.292E-01 dE for cont linesearch -0.643E-07
 trial: gam= 0.33718 g(F)=  0.260E+00 g(S)=  0.113E-01 ort =-0.762E-03 (trialstep = 0.152E+00)
 search vector abs. value=  0.382E+00
 bond charge predicted
       N       E                     dE             d eps       ncg     rms          rms(c)
DAV:   1    -0.187450467236E+03   -0.19120E-01   -0.18639E+00 10928   0.360E+00    0.540E-01
RMM:   2    -0.187455557188E+03   -0.50900E-02   -0.52375E-02 10882   0.744E-01    0.671E-01
RMM:   3    -0.187457177589E+03   -0.16204E-02   -0.56609E-03 12101   0.220E-01    0.957E-01
RMM:   4    -0.187453987479E+03    0.31901E-02   -0.16889E-03 11044   0.108E-01    0.241E-01
RMM:   5    -0.187454103190E+03   -0.11571E-03   -0.74531E-04 10879   0.747E-02    0.358E-01
RMM:   6    -0.187453814954E+03    0.28824E-03   -0.36391E-04 10952   0.496E-02    0.274E-01
RMM:   7    -0.187453617245E+03    0.19771E-03   -0.23785E-04 10195   0.394E-02    0.142E-01
RMM:   8    -0.187453542825E+03    0.74420E-04   -0.73442E-05  9484   0.231E-02    0.685E-02
RMM:   9    -0.187453531078E+03    0.11747E-04   -0.20409E-05  6853   0.127E-02    0.557E-02
RMM:  10    -0.187453529585E+03    0.14929E-05   -0.76543E-06  6344   0.106E-02
  30 F= -.18745353E+03 E0= -.18745717E+03  d E =-.221859E-01  mag=     0.0306
 trial-energy change:   -0.022186  1 .order   -0.024884   -0.041234   -0.008533
 step:   0.1916(harm=  0.1916)  dis= 0.00899  next Energy=  -187.457341 (dE=-0.260E-01)
 bond charge predicted
       N       E                     dE             d eps       ncg     rms          rms(c)
DAV:   1    -0.187454026196E+03   -0.49512E-03   -0.12690E-01 11296   0.939E-01    0.146E-01
RMM:   2    -0.187454392838E+03   -0.36664E-03   -0.36099E-03 10882   0.196E-01    0.182E-01
RMM:   3    -0.187454512106E+03   -0.11927E-03   -0.40369E-04 11664   0.572E-02    0.263E-01
RMM:   4    -0.187454284303E+03    0.22780E-03   -0.12055E-04 10195   0.291E-02    0.781E-02
RMM:   5    -0.187454272601E+03    0.11702E-04   -0.45057E-05  8122   0.192E-02    0.713E-02
RMM:   6    -0.187454280918E+03   -0.83165E-05   -0.29686E-05  7637   0.163E-02
  31 F= -.18745428E+03 E0= -.18745797E+03  d E =-.229372E-01  mag=     0.0193
 curvature:  -0.13 expect dE=-0.329E-01 dE for cont linesearch -0.658E-04
 trial: gam= 0.88643 g(F)=  0.231E+00 g(S)=  0.133E-01 ort =-0.137E-01 (trialstep = 0.117E+00)
 search vector abs. value=  0.520E+00
 bond charge predicted
       N       E                     dE             d eps       ncg     rms          rms(c)
DAV:   1    -0.187468116966E+03   -0.13844E-01   -0.15304E+00 10912   0.338E+00    0.580E-01
RMM:   2    -0.187471763961E+03   -0.36470E-02   -0.43439E-02 10880   0.690E-01    0.555E-01
RMM:   3    -0.187474468097E+03   -0.27041E-02   -0.48930E-03 11913   0.204E-01    0.103E+00
RMM:   4    -0.187471183365E+03    0.32847E-02   -0.16771E-03 10969   0.110E-01    0.374E-01
RMM:   5    -0.187470806282E+03    0.37708E-03   -0.92448E-04 10892   0.810E-02    0.307E-01
RMM:   6    -0.187470741922E+03    0.64360E-04   -0.42718E-04 11133   0.525E-02    0.321E-01
RMM:   7    -0.187470423389E+03    0.31853E-03   -0.20425E-04 10440   0.369E-02    0.130E-01
RMM:   8    -0.187470364731E+03    0.58658E-04   -0.61793E-05  9571   0.205E-02    0.554E-02
RMM:   9    -0.187470365553E+03   -0.82253E-06   -0.14841E-05  6461   0.125E-02
  32 F= -.18747037E+03 E0= -.18747433E+03  d E =-.160846E-01  mag=     0.0025
 trial-energy change:   -0.016085  1 .order   -0.016150   -0.027245   -0.005056
 step:   0.1447(harm=  0.1441)  dis= 0.00667  next Energy=  -187.470954 (dE=-0.167E-01)
 bond charge predicted
       N       E                     dE             d eps       ncg     rms          rms(c)
DAV:   1    -0.187470721871E+03   -0.35714E-03   -0.83199E-02 11568   0.789E-01    0.142E-01
RMM:   2    -0.187471164907E+03   -0.44304E-03   -0.24721E-03 10880   0.164E-01    0.288E-01
RMM:   3    -0.187470970412E+03    0.19450E-03   -0.29720E-04 11579   0.487E-02    0.166E-01
RMM:   4    -0.187470882870E+03    0.87541E-04   -0.11195E-04 10328   0.276E-02    0.738E-02
RMM:   5    -0.187470890454E+03   -0.75839E-05   -0.53573E-05  8438   0.202E-02
  33 F= -.18747089E+03 E0= -.18747490E+03  d E =-.166095E-01  mag=    -0.0068
 curvature:  -0.16 expect dE=-0.319E-01 dE for cont linesearch -0.173E-04
 trial: gam= 0.68946 g(F)=  0.182E+00 g(S)=  0.162E-01 ort =-0.747E-02 (trialstep = 0.123E+00)
 search vector abs. value=  0.435E+00
 bond charge predicted
       N       E                     dE             d eps       ncg     rms          rms(c)
DAV:   1    -0.187482985413E+03   -0.12103E-01   -0.14371E+00 10928   0.337E+00    0.412E-01
RMM:   2    -0.187486499148E+03   -0.35137E-02   -0.38820E-02 10880   0.655E-01    0.594E-01
RMM:   3    -0.187486783144E+03   -0.28400E-03   -0.36664E-03 12152   0.182E-01    0.646E-01
RMM:   4    -0.187485279281E+03    0.15039E-02   -0.84072E-04 11174   0.762E-02    0.196E-01
RMM:   5    -0.187485389775E+03   -0.11049E-03   -0.46314E-04 10913   0.563E-02    0.303E-01
RMM:   6    -0.187485259861E+03    0.12991E-03   -0.27402E-04 10880   0.431E-02    0.256E-01
RMM:   7    -0.187485099705E+03    0.16016E-03   -0.21228E-04 10183   0.371E-02    0.145E-01
RMM:   8    -0.187485018905E+03    0.80800E-04   -0.13082E-04 10117   0.288E-02    0.667E-02
RMM:   9    -0.187485006923E+03    0.11982E-04   -0.20957E-05  6797   0.143E-02    0.643E-02
RMM:  10    -0.187484996859E+03    0.10064E-04   -0.94019E-06  6298   0.115E-02    0.349E-02
RMM:  11    -0.187484997483E+03   -0.62448E-06   -0.53490E-06  6157   0.759E-03
  34 F= -.18748500E+03 E0= -.18748923E+03  d E =-.141070E-01  mag=    -0.0221
 trial-energy change:   -0.014107  1 .order   -0.015555   -0.023650   -0.007459
 step:   0.1794(harm=  0.1794)  dis= 0.00923  next Energy=  -187.488164 (dE=-0.173E-01)
 bond charge predicted
       N       E                     dE             d eps       ncg     rms          rms(c)
DAV:   1    -0.187486905348E+03   -0.19085E-02   -0.30504E-01 10992   0.156E+00    0.186E-01
RMM:   2    -0.187487568984E+03   -0.66364E-03   -0.82824E-03 10880   0.303E-01    0.216E-01
RMM:   3    -0.187487730238E+03   -0.16125E-03   -0.76071E-04 12064   0.832E-02    0.298E-01
RMM:   4    -0.187487434440E+03    0.29580E-03   -0.16053E-04 10452   0.341E-02    0.108E-01
RMM:   5    -0.187487424341E+03    0.10099E-04   -0.10457E-04  9216   0.265E-02    0.120E-01
RMM:   6    -0.187487383592E+03    0.40750E-04   -0.72192E-05  9602   0.223E-02    0.708E-02
RMM:   7    -0.187487401100E+03   -0.17508E-04   -0.29412E-05  7601   0.154E-02    0.101E-01
RMM:   8    -0.187487369141E+03    0.31959E-04   -0.23778E-05  6947   0.158E-02    0.325E-02
RMM:   9    -0.187487364610E+03    0.45304E-05   -0.61727E-06  6132   0.966E-03
  35 F= -.18748736E+03 E0= -.18749174E+03  d E =-.164742E-01  mag=    -0.0295
 curvature:  -0.20 expect dE=-0.371E-01 dE for cont linesearch -0.920E-05
 trial: gam= 0.88126 g(F)=  0.168E+00 g(S)=  0.151E-01 ort = 0.445E-02 (trialstep = 0.110E+00)
 search vector abs. value=  0.529E+00
 bond charge predicted
       N       E                     dE             d eps       ncg     rms          rms(c)
DAV:   1    -0.187499110229E+03   -0.11741E-01   -0.14164E+00 10896   0.343E+00    0.423E-01
RMM:   2    -0.187501923329E+03   -0.28131E-02   -0.39056E-02 10880   0.645E-01    0.544E-01
RMM:   3    -0.187502316833E+03   -0.39350E-03   -0.33603E-03 11962   0.185E-01    0.639E-01
RMM:   4    -0.187500897385E+03    0.14194E-02   -0.10158E-03 10985   0.871E-02    0.241E-01
RMM:   5    -0.187500764912E+03    0.13247E-03   -0.59495E-04 10911   0.640E-02    0.247E-01
RMM:   6    -0.187500578744E+03    0.18617E-03   -0.24235E-04 11243   0.399E-02    0.161E-01
RMM:   7    -0.187500548235E+03    0.30509E-04   -0.90918E-05  9596   0.252E-02    0.145E-01
RMM:   8    -0.187500477901E+03    0.70334E-04   -0.60788E-05  9523   0.206E-02    0.405E-02
RMM:   9    -0.187500473345E+03    0.45561E-05   -0.15121E-05  6466   0.121E-02
  36 F= -.18750047E+03 E0= -.18750505E+03  d E =-.131087E-01  mag=    -0.0338
 trial-energy change:   -0.013109  1 .order   -0.013876   -0.020658   -0.007094
 step:   0.1678(harm=  0.1678)  dis= 0.01005  next Energy=  -187.503095 (dE=-0.157E-01)
 bond charge predicted
       N       E                     dE             d eps       ncg     rms          rms(c)
DAV:   1    -0.187502085021E+03   -0.16071E-02   -0.38768E-01 10992   0.179E+00    0.219E-01
RMM:   2    -0.187502944759E+03   -0.85974E-03   -0.10797E-02 10880   0.338E-01    0.322E-01
RMM:   3    -0.187502877366E+03    0.67393E-04   -0.90573E-04 11946   0.972E-02    0.292E-01
RMM:   4    -0.187502580696E+03    0.29667E-03   -0.29476E-04 11002   0.461E-02    0.129E-01
RMM:   5    -0.187502541849E+03    0.38847E-04   -0.14960E-04  9588   0.326E-02    0.121E-01
RMM:   6    -0.187502518952E+03    0.22897E-04   -0.69203E-05  9414   0.217E-02    0.111E-01
RMM:   7    -0.187502483567E+03    0.35385E-04   -0.24861E-05  7266   0.148E-02    0.559E-02
RMM:   8    -0.187502474556E+03    0.90108E-05   -0.14074E-05  6378   0.135E-02
  37 F= -.18750247E+03 E0= -.18750719E+03  d E =-.151099E-01  mag=    -0.0351
 curvature:  -0.24 expect dE=-0.428E-01 dE for cont linesearch -0.134E-03
 trial: gam= 0.87269 g(F)=  0.173E+00 g(S)=  0.802E-02 ort = 0.173E-01 (trialstep = 0.105E+00)
 search vector abs. value=  0.614E+00
 bond charge predicted
       N       E                     dE             d eps       ncg     rms          rms(c)
DAV:   1    -0.187512811458E+03   -0.10328E-01   -0.15168E+00 10896   0.347E+00    0.371E-01
RMM:   2    -0.187515887870E+03   -0.30764E-02   -0.37400E-02 10880   0.638E-01    0.432E-01
RMM:   3    -0.187516784930E+03   -0.89706E-03   -0.34287E-03 12217   0.179E-01    0.658E-01
RMM:   4    -0.187515260936E+03    0.15240E-02   -0.71637E-04 11205   0.717E-02    0.197E-01
RMM:   5    -0.187515207210E+03    0.53726E-04   -0.45901E-04 10511   0.545E-02    0.239E-01
RMM:   6    -0.187515028696E+03    0.17851E-03   -0.23823E-04 11038   0.385E-02    0.159E-01
RMM:   7    -0.187514992850E+03    0.35846E-04   -0.99953E-05  9551   0.258E-02    0.132E-01
RMM:   8    -0.187514935680E+03    0.57170E-04   -0.62636E-05  9539   0.205E-02    0.474E-02
RMM:   9    -0.187514929520E+03    0.61597E-05   -0.11512E-05  6389   0.112E-02
  38 F= -.18751493E+03 E0= -.18751985E+03  d E =-.124550E-01  mag=    -0.0349
 trial-energy change:   -0.012455  1 .order   -0.012419   -0.020548   -0.004290
 step:   0.1326(harm=  0.1326)  dis= 0.00612  next Energy=  -187.515459 (dE=-0.130E-01)
 bond charge predicted
       N       E                     dE             d eps       ncg     rms          rms(c)
DAV:   1    -0.187515804986E+03   -0.86931E-03   -0.10557E-01 11544   0.915E-01    0.103E-01
RMM:   2    -0.187516078497E+03   -0.27351E-03   -0.26712E-03 10880   0.170E-01    0.160E-01
RMM:   3    -0.187516063011E+03    0.15486E-04   -0.24563E-04 11343   0.477E-02    0.149E-01
RMM:   4    -0.187515997059E+03    0.65952E-04   -0.57169E-05  9023   0.205E-02    0.722E-02
RMM:   5    -0.187515975993E+03    0.21066E-04   -0.27649E-05  7480   0.151E-02    0.458E-02
RMM:   6    -0.187515982591E+03   -0.65979E-05   -0.19064E-05  6692   0.135E-02
  39 F= -.18751598E+03 E0= -.18752096E+03  d E =-.135080E-01  mag=    -0.0342
 curvature:  -0.21 expect dE=-0.297E-01 dE for cont linesearch -0.165E-03
 trial: gam= 0.64857 g(F)=  0.129E+00 g(S)=  0.135E-01 ort = 0.221E-01 (trialstep = 0.110E+00)
 search vector abs. value=  0.430E+00
 bond charge predicted
       N       E                     dE             d eps       ncg     rms          rms(c)
DAV:   1    -0.187526541344E+03   -0.10565E-01   -0.12019E+00 10896   0.311E+00    0.298E-01
RMM:   2    -0.187528730579E+03   -0.21892E-02   -0.28893E-02 10880   0.563E-01    0.295E-01
RMM:   3    -0.187529287337E+03   -0.55676E-03   -0.23343E-03 12078   0.151E-01    0.484E-01
RMM:   4    -0.187528490223E+03    0.79711E-03   -0.41245E-04 11295   0.536E-02    0.189E-01
RMM:   5    -0.187528410835E+03    0.79388E-04   -0.34090E-04 10389   0.459E-02    0.206E-01
RMM:   6    -0.187528281537E+03    0.12930E-03   -0.21159E-04 10797   0.341E-02    0.129E-01
RMM:   7    -0.187528273288E+03    0.82487E-05   -0.66962E-05  9247   0.218E-02
  40 F= -.18752827E+03 E0= -.18753332E+03  d E =-.122907E-01  mag=    -0.0335
 trial-energy change:   -0.012291  1 .order   -0.011886   -0.017366   -0.006405
 step:   0.1593(harm=  0.1750)  dis= 0.00485  next Energy=  -187.529726 (dE=-0.137E-01)
 bond charge predicted
       N       E                     dE             d eps       ncg     rms          rms(c)
DAV:   1    -0.187529595109E+03   -0.13136E-02   -0.23531E-01 10944   0.137E+00    0.139E-01
RMM:   2    -0.187530231886E+03   -0.63678E-03   -0.56618E-03 10880   0.249E-01    0.262E-01
RMM:   3    -0.187530111221E+03    0.12066E-03   -0.50475E-04 11745   0.698E-02    0.201E-01
RMM:   4    -0.187529971324E+03    0.13990E-03   -0.12056E-04 11161   0.266E-02    0.686E-02
RMM:   5    -0.187529962186E+03    0.91379E-05   -0.58905E-05  8839   0.196E-02
  41 F= -.18752996E+03 E0= -.18753500E+03  d E =-.139796E-01  mag=    -0.0328
 curvature:  -0.23 expect dE=-0.296E-01 dE for cont linesearch -0.526E-04
 trial: gam= 0.71645 g(F)=  0.120E+00 g(S)=  0.115E-01 ort = 0.100E-01 (trialstep = 0.120E+00)
 search vector abs. value=  0.366E+00
 bond charge predicted
       N       E                     dE             d eps       ncg     rms          rms(c)
DAV:   1    -0.187539306858E+03   -0.93355E-02   -0.12182E+00 10880   0.322E+00    0.374E-01
RMM:   2    -0.187543987346E+03   -0.46805E-02   -0.31798E-02 10880   0.588E-01    0.915E-01
RMM:   3    -0.187541734582E+03    0.22528E-02   -0.28945E-03 11470   0.171E-01    0.483E-01
RMM:   4    -0.187540780252E+03    0.95433E-03   -0.70574E-04 12141   0.651E-02    0.153E-01
RMM:   5    -0.187540952118E+03   -0.17187E-03   -0.27541E-04 10847   0.429E-02    0.317E-01
RMM:   6    -0.187540691294E+03    0.26082E-03   -0.18136E-04 10719   0.333E-02    0.151E-01
RMM:   7    -0.187540625538E+03    0.65756E-04   -0.14423E-04  9742   0.306E-02    0.101E-01
RMM:   8    -0.187540588738E+03    0.36801E-04   -0.82834E-05  9859   0.235E-02    0.626E-02
RMM:   9    -0.187540582847E+03    0.58906E-05   -0.12365E-05  6404   0.123E-02
  42 F= -.18754058E+03 E0= -.18754563E+03  d E =-.106207E-01  mag=    -0.0312
 trial-energy change:   -0.010621  1 .order   -0.012269   -0.016658   -0.007880
 step:   0.2282(harm=  0.2282)  dis= 0.00674  next Energy=  -187.545769 (dE=-0.158E-01)
 bond charge predicted
       N       E                     dE             d eps       ncg     rms          rms(c)
DAV:   1    -0.187544331851E+03   -0.37431E-02   -0.98354E-01 10880   0.290E+00    0.315E-01
RMM:   2    -0.187546717793E+03   -0.23859E-02   -0.25523E-02 10880   0.527E-01    0.536E-01
RMM:   3    -0.187546605867E+03    0.11193E-03   -0.21880E-03 11779   0.149E-01    0.517E-01
RMM:   4    -0.187545597334E+03    0.10085E-02   -0.50092E-04 11659   0.571E-02    0.119E-01
RMM:   5    -0.187545697835E+03   -0.10050E-03   -0.23318E-04 10519   0.394E-02    0.255E-01
RMM:   6    -0.187545534025E+03    0.16381E-03   -0.11267E-04 10084   0.268E-02    0.138E-01
RMM:   7    -0.187545476563E+03    0.57462E-04   -0.10022E-04  9424   0.259E-02    0.868E-02
RMM:   8    -0.187545445667E+03    0.30896E-04   -0.49465E-05  9048   0.190E-02    0.385E-02
RMM:   9    -0.187545442804E+03    0.28629E-05   -0.82770E-06  6329   0.101E-02
  43 F= -.18754544E+03 E0= -.18755053E+03  d E =-.154806E-01  mag=    -0.0289
 curvature:  -0.30 expect dE=-0.426E-01 dE for cont linesearch -0.361E-03
 trial: gam= 0.95972 g(F)=  0.132E+00 g(S)=  0.915E-02 ort = 0.209E-01 (trialstep = 0.100E+00)
 search vector abs. value=  0.519E+00
 bond charge predicted
       N       E                     dE             d eps       ncg     rms          rms(c)
DAV:   1    -0.187554083617E+03   -0.86380E-02   -0.11832E+00 10880   0.320E+00    0.371E-01
RMM:   2    -0.187556295946E+03   -0.22123E-02   -0.32643E-02 10880   0.587E-01    0.597E-01
RMM:   3    -0.187556221567E+03    0.74379E-04   -0.27271E-03 11649   0.169E-01    0.600E-01
RMM:   4    -0.187554842205E+03    0.13794E-02   -0.84261E-04 11361   0.760E-02    0.154E-01
RMM:   5    -0.187554871970E+03   -0.29766E-04   -0.36593E-04 10819   0.485E-02    0.235E-01
RMM:   6    -0.187554751011E+03    0.12096E-03   -0.16725E-04 11097   0.320E-02    0.173E-01
RMM:   7    -0.187554666760E+03    0.84250E-04   -0.97829E-05  9498   0.255E-02    0.107E-01
RMM:   8    -0.187554624314E+03    0.42446E-04   -0.72207E-05 10012   0.214E-02    0.378E-02
RMM:   9    -0.187554620848E+03    0.34665E-05   -0.16525E-05  6499   0.128E-02
  44 F= -.18755462E+03 E0= -.18755973E+03  d E =-.917804E-02  mag=    -0.0267
 trial-energy change:   -0.009178  1 .order   -0.009886   -0.016163   -0.003608
 step:   0.1652(harm=  0.1289)  dis= 0.00573  next Energy=  -187.555600 (dE=-0.102E-01)
 bond charge predicted
       N       E                     dE             d eps       ncg     rms          rms(c)
DAV:   1    -0.187554077372E+03    0.54694E-03   -0.50066E-01 10928   0.208E+00    0.244E-01
RMM:   2    -0.187555140472E+03   -0.10631E-02   -0.13875E-02 10880   0.382E-01    0.437E-01
RMM:   3    -0.187554883810E+03    0.25666E-03   -0.11490E-03 11615   0.110E-01    0.356E-01
RMM:   4    -0.187554386981E+03    0.49683E-03   -0.36557E-04 11343   0.495E-02    0.105E-01
RMM:   5    -0.187554412992E+03   -0.26011E-04   -0.14956E-04  9692   0.316E-02    0.165E-01
RMM:   6    -0.187554360141E+03    0.52851E-04   -0.68478E-05  9536   0.214E-02    0.120E-01
RMM:   7    -0.187554309525E+03    0.50616E-04   -0.46665E-05  8137   0.188E-02    0.553E-02
RMM:   8    -0.187554297854E+03    0.11672E-04   -0.22406E-05  6629   0.152E-02    0.327E-02
RMM:   9    -0.187554299066E+03   -0.12126E-05   -0.78135E-06  6254   0.110E-02
  45 F= -.18755430E+03 E0= -.18755943E+03  d E =-.885626E-02  mag=    -0.0245
 curvature:   0.12 expect dE= 0.314E-01 dE for cont linesearch  0.709E-03
 ZBRENT: interpolating
 opt :   0.1260  next Energy=  -187.555088 (dE=-0.965E-02)
 bond charge predicted
       N       E                     dE             d eps       ncg     rms          rms(c)
DAV:   1    -0.187555237508E+03   -0.93965E-03   -0.18166E-01 11040   0.126E+00    0.143E-01
RMM:   2    -0.187555475218E+03   -0.23771E-03   -0.49300E-03 10880   0.229E-01    0.168E-01
RMM:   3    -0.187555623423E+03   -0.14821E-03   -0.41214E-04 11434   0.664E-02    0.267E-01
RMM:   4    -0.187555370776E+03    0.25265E-03   -0.13412E-04 10372   0.308E-02    0.827E-02
RMM:   5    -0.187555347706E+03    0.23070E-04   -0.63173E-05  8700   0.209E-02    0.725E-02
RMM:   6    -0.187555325921E+03    0.21785E-04   -0.34897E-05  8043   0.165E-02    0.349E-02
RMM:   7    -0.187555325430E+03    0.49083E-06   -0.12795E-05  6280   0.117E-02
  46 F= -.18755533E+03 E0= -.18756046E+03  d E =-.988263E-02  mag=    -0.0223
 curvature:  -0.08 expect dE=-0.107E-01 dE for cont linesearch -0.410E-06
 trial: gam= 0.88225 g(F)=  0.127E+00 g(S)=  0.384E-02 ort = 0.161E-02 (trialstep = 0.102E+00)
 search vector abs. value=  0.537E+00
 bond charge predicted
       N       E                     dE             d eps       ncg     rms          rms(c)
DAV:   1    -0.187563830288E+03   -0.85044E-02   -0.12665E+00 10880   0.336E+00    0.372E-01
RMM:   2    -0.187566235533E+03   -0.24052E-02   -0.33844E-02 10880   0.597E-01    0.548E-01
RMM:   3    -0.187566530143E+03   -0.29461E-03   -0.26415E-03 11463   0.173E-01    0.641E-01
RMM:   4    -0.187565075616E+03    0.14545E-02   -0.75679E-04 11459   0.723E-02    0.181E-01
RMM:   5    -0.187565002082E+03    0.73534E-04   -0.36616E-04 10648   0.487E-02    0.213E-01
RMM:   6    -0.187564949188E+03    0.52894E-04   -0.16117E-04 11362   0.313E-02    0.195E-01
RMM:   7    -0.187564830904E+03    0.11828E-03   -0.83684E-05  9465   0.238E-02    0.980E-02
RMM:   8    -0.187564791815E+03    0.39090E-04   -0.68372E-05  9811   0.205E-02    0.333E-02
RMM:   9    -0.187564787283E+03    0.45320E-05   -0.14763E-05  6435   0.128E-02
  47 F= -.18756479E+03 E0= -.18756992E+03  d E =-.946185E-02  mag=    -0.0199
 trial-energy change:   -0.009462  1 .order   -0.009742   -0.013412   -0.006072
 step:   0.1858(harm=  0.1858)  dis= 0.00648  next Energy=  -187.567578 (dE=-0.123E-01)
 bond charge predicted
       N       E                     dE             d eps       ncg     rms          rms(c)
DAV:   1    -0.187566521243E+03   -0.17294E-02   -0.86593E-01 10880   0.278E+00    0.310E-01
RMM:   2    -0.187568246730E+03   -0.17255E-02   -0.23263E-02 10880   0.494E-01    0.480E-01
RMM:   3    -0.187568286751E+03   -0.40021E-04   -0.18274E-03 11453   0.143E-01    0.515E-01
RMM:   4    -0.187567356297E+03    0.93045E-03   -0.53196E-04 11613   0.597E-02    0.152E-01
RMM:   5    -0.187567308350E+03    0.47947E-04   -0.25177E-04 10304   0.399E-02    0.178E-01
RMM:   6    -0.187567287805E+03    0.20545E-04   -0.11907E-04 10649   0.274E-02    0.174E-01
RMM:   7    -0.187567194143E+03    0.93662E-04   -0.67045E-05  9154   0.218E-02    0.837E-02
RMM:   8    -0.187567166860E+03    0.27282E-04   -0.51147E-05  8911   0.184E-02    0.341E-02
RMM:   9    -0.187567166542E+03    0.31811E-06   -0.10764E-05  6342   0.119E-02
  48 F= -.18756717E+03 E0= -.18757227E+03  d E =-.118411E-01  mag=    -0.0176
 curvature:  -0.38 expect dE=-0.739E-01 dE for cont linesearch -0.406E-04
 trial: gam= 1.24592 g(F)=  0.191E+00 g(S)=  0.474E-02 ort =-0.759E-02 (trialstep = 0.630E-01)
 search vector abs. value=  0.101E+01
 bond charge predicted
       N       E                     dE             d eps       ncg     rms          rms(c)
DAV:   1    -0.187575722432E+03   -0.85556E-02   -0.92338E-01 10880   0.287E+00    0.297E-01
RMM:   2    -0.187577688791E+03   -0.19664E-02   -0.22988E-02 10880   0.494E-01    0.480E-01
RMM:   3    -0.187577620010E+03    0.68780E-04   -0.17230E-03 11448   0.143E-01    0.474E-01
RMM:   4    -0.187576803060E+03    0.81695E-03   -0.39664E-04 11839   0.519E-02    0.131E-01
RMM:   5    -0.187576803405E+03   -0.34518E-06   -0.21016E-04 10225   0.354E-02    0.178E-01
RMM:   6    -0.187576804366E+03   -0.96060E-06   -0.11783E-04 10698   0.279E-02    0.190E-01
RMM:   7    -0.187576669640E+03    0.13473E-03   -0.66645E-05  8942   0.215E-02    0.549E-02
RMM:   8    -0.187576655272E+03    0.14368E-04   -0.28010E-05  7233   0.145E-02    0.274E-02
RMM:   9    -0.187576657214E+03   -0.19424E-05   -0.70874E-06  6292   0.107E-02
  49 F= -.18757666E+03 E0= -.18758171E+03  d E =-.949067E-02  mag=    -0.0152
 trial-energy change:   -0.009491  1 .order   -0.009680   -0.011711   -0.007648
 step:   0.1817(harm=  0.1817)  dis= 0.00814  next Energy=  -187.584046 (dE=-0.169E-01)
 bond charge predicted
       N       E                     dE             d eps       ncg     rms          rms(c)
DAV:   1    -0.187579483351E+03   -0.28281E-02   -0.32739E+00 10880   0.540E+00    0.556E-01
RMM:   2    -0.187585593761E+03   -0.61104E-02   -0.81251E-02 10880   0.928E-01    0.777E-01
RMM:   3    -0.187586633696E+03   -0.10399E-02   -0.60978E-03 11474   0.271E-01    0.978E-01
RMM:   4    -0.187583302775E+03    0.33309E-02   -0.14490E-03 11814   0.101E-01    0.255E-01
RMM:   5    -0.187583216558E+03    0.86217E-04   -0.77102E-04 11691   0.683E-02    0.318E-01
RMM:   6    -0.187583199324E+03    0.17234E-04   -0.38901E-04 11767   0.494E-02    0.339E-01
RMM:   7    -0.187582799676E+03    0.39965E-03   -0.22463E-04 11033   0.382E-02    0.126E-01
RMM:   8    -0.187582734318E+03    0.65358E-04   -0.13218E-04 11488   0.262E-02    0.408E-02
RMM:   9    -0.187582724430E+03    0.98880E-05   -0.23812E-05  6984   0.151E-02
  50 F= -.18758272E+03 E0= -.18758765E+03  d E =-.155579E-01  mag=    -0.0129
 curvature:  -0.49 expect dE=-0.107E+00 dE for cont linesearch -0.535E-04
 trial: gam= 1.09589 g(F)=  0.214E+00 g(S)=  0.219E-02 ort = 0.105E-01 (trialstep = 0.603E-01)
 search vector abs. value=  0.145E+01
 bond charge predicted
       N       E                     dE             d eps       ncg     rms          rms(c)
DAV:   1    -0.187590202461E+03   -0.74681E-02   -0.12407E+00 10880   0.330E+00    0.307E-01
RMM:   2    -0.187592779899E+03   -0.25774E-02   -0.30409E-02 10880   0.564E-01    0.409E-01
RMM:   3    -0.187593203117E+03   -0.42322E-03   -0.21680E-03 11576   0.164E-01    0.554E-01
RMM:   4    -0.187592186244E+03    0.10169E-02   -0.46963E-04 12053   0.562E-02    0.156E-01
RMM:   5    -0.187592117472E+03    0.68772E-04   -0.25568E-04 10511   0.397E-02    0.167E-01
RMM:   6    -0.187592133479E+03   -0.16007E-04   -0.15176E-04 11466   0.306E-02    0.199E-01
RMM:   7    -0.187592001723E+03    0.13176E-03   -0.70611E-05  9354   0.215E-02    0.742E-02
RMM:   8    -0.187591978798E+03    0.22925E-04   -0.33500E-05  7859   0.153E-02    0.236E-02
RMM:   9    -0.187591979869E+03   -0.10711E-05   -0.72882E-06  6316   0.105E-02
  51 F= -.18759198E+03 E0= -.18759675E+03  d E =-.925544E-02  mag=    -0.0107
 trial-energy change:   -0.009255  1 .order   -0.009463   -0.013758   -0.005169
 step:   0.1097(harm=  0.0966)  dis= 0.00594  next Energy=  -187.593979 (dE=-0.113E-01)
 bond charge predicted
       N       E                     dE             d eps       ncg     rms          rms(c)
DAV:   1    -0.187592718283E+03   -0.73948E-03   -0.82951E-01 10880   0.270E+00    0.251E-01
RMM:   2    -0.187594382978E+03   -0.16647E-02   -0.20286E-02 10880   0.460E-01    0.314E-01
RMM:   3    -0.187594740836E+03   -0.35786E-03   -0.14372E-03 11536   0.134E-01    0.459E-01
RMM:   4    -0.187594042659E+03    0.69818E-03   -0.31458E-04 11853   0.463E-02    0.128E-01
RMM:   5    -0.187594004023E+03    0.38636E-04   -0.17901E-04  9982   0.331E-02    0.142E-01
RMM:   6    -0.187594011754E+03   -0.77310E-05   -0.98557E-05 10327   0.253E-02
  52 F= -.18759401E+03 E0= -.18759856E+03  d E =-.112873E-01  mag=    -0.0094
 curvature:  -0.27 expect dE=-0.383E-01 dE for cont linesearch -0.824E-04
 trial: gam= 0.62408 g(F)=  0.130E+00 g(S)=  0.125E-01 ort = 0.211E-01 (trialstep = 0.702E-01)
 search vector abs. value=  0.735E+00
 bond charge predicted
       N       E                     dE             d eps       ncg     rms          rms(c)
DAV:   1    -0.187600940791E+03   -0.69368E-02   -0.87671E-01 10896   0.275E+00    0.225E-01
RMM:   2    -0.187602974368E+03   -0.20336E-02   -0.21266E-02 10880   0.463E-01    0.298E-01
RMM:   3    -0.187603007982E+03   -0.33614E-04   -0.12620E-03 11857   0.133E-01    0.315E-01
RMM:   4    -0.187602686647E+03    0.32134E-03   -0.27500E-04 12651   0.411E-02    0.115E-01
RMM:   5    -0.187602729640E+03   -0.42993E-04   -0.19216E-04 10191   0.347E-02    0.173E-01
RMM:   6    -0.187602693791E+03    0.35850E-04   -0.11587E-04 10418   0.275E-02    0.162E-01
RMM:   7    -0.187602606725E+03    0.87066E-04   -0.45701E-05  8402   0.184E-02    0.503E-02
RMM:   8    -0.187602595181E+03    0.11544E-04   -0.26193E-05  7158   0.145E-02    0.280E-02
RMM:   9    -0.187602594855E+03    0.32535E-06   -0.65683E-06  6229   0.102E-02
  53 F= -.18760259E+03 E0= -.18760712E+03  d E =-.858310E-02  mag=    -0.0077
 trial-energy change:   -0.008583  1 .order   -0.009059   -0.010942   -0.007177
 step:   0.2040(harm=  0.2040)  dis= 0.00802  next Energy=  -187.609912 (dE=-0.159E-01)
 bond charge predicted
       N       E                     dE             d eps       ncg     rms          rms(c)
DAV:   1    -0.187604306612E+03   -0.17114E-02   -0.31885E+00 10880   0.525E+00    0.426E-01
RMM:   2    -0.187611704941E+03   -0.73983E-02   -0.78218E-02 10888   0.889E-01    0.538E-01
RMM:   3    -0.187612574045E+03   -0.86910E-03   -0.48123E-03 11805   0.253E-01    0.736E-01
RMM:   4    -0.187610820696E+03    0.17533E-02   -0.96896E-04 12538   0.815E-02    0.221E-01
RMM:   5    -0.187610899365E+03   -0.78670E-04   -0.65338E-04 11351   0.638E-02    0.317E-01
RMM:   6    -0.187610764718E+03    0.13465E-03   -0.31193E-04 11805   0.436E-02    0.279E-01
RMM:   7    -0.187610517118E+03    0.24760E-03   -0.18251E-04 10682   0.340E-02    0.133E-01
RMM:   8    -0.187610450366E+03    0.66752E-04   -0.95078E-05 10851   0.233E-02    0.366E-02
RMM:   9    -0.187610449758E+03    0.60829E-06   -0.10315E-05  6485   0.116E-02
  54 F= -.18761045E+03 E0= -.18761467E+03  d E =-.164380E-01  mag=    -0.0064
 curvature:  -0.48 expect dE=-0.968E-01 dE for cont linesearch -0.393E-07
 trial: gam= 1.21080 g(F)=  0.181E+00 g(S)=  0.201E-01 ort = 0.245E-03 (trialstep = 0.557E-01)
 search vector abs. value=  0.128E+01
 bond charge predicted
       N       E                     dE             d eps       ncg     rms          rms(c)
DAV:   1    -0.187617495138E+03   -0.70448E-02   -0.96871E-01 10880   0.293E+00    0.279E-01
RMM:   2    -0.187619555423E+03   -0.20603E-02   -0.25153E-02 10880   0.505E-01    0.308E-01
RMM:   3    -0.187619957438E+03   -0.40202E-03   -0.15762E-03 11688   0.146E-01    0.466E-01
RMM:   4    -0.187619248258E+03    0.70918E-03   -0.44495E-04 11659   0.558E-02    0.121E-01
RMM:   5    -0.187619303703E+03   -0.55446E-04   -0.30873E-04 10608   0.443E-02    0.198E-01
RMM:   6    -0.187619187682E+03    0.11602E-03   -0.10999E-04 10232   0.271E-02    0.122E-01
RMM:   7    -0.187619139395E+03    0.48287E-04   -0.37042E-05  7995   0.169E-02    0.653E-02
RMM:   8    -0.187619123998E+03    0.15398E-04   -0.24016E-05  6911   0.150E-02    0.277E-02
RMM:   9    -0.187619126038E+03   -0.20398E-05   -0.87832E-06  6275   0.114E-02
  55 F= -.18761913E+03 E0= -.18762321E+03  d E =-.867628E-02  mag=    -0.0053
 trial-energy change:   -0.008676  1 .order   -0.008572   -0.011229   -0.005915
 step:   0.1063(harm=  0.1177)  dis= 0.00509  next Energy=  -187.621893 (dE=-0.114E-01)
 bond charge predicted
       N       E                     dE             d eps       ncg     rms          rms(c)
DAV:   1    -0.187621131154E+03   -0.20072E-02   -0.79983E-01 10880   0.266E+00    0.250E-01
RMM:   2    -0.187622756628E+03   -0.16255E-02   -0.20712E-02 10880   0.459E-01    0.243E-01
RMM:   3    -0.187623178536E+03   -0.42191E-03   -0.12874E-03 11681   0.132E-01    0.429E-01
RMM:   4    -0.187622588487E+03    0.59005E-03   -0.35247E-04 11726   0.495E-02    0.126E-01
RMM:   5    -0.187622609347E+03   -0.20860E-04   -0.26807E-04 10401   0.413E-02    0.175E-01
RMM:   6    -0.187622494615E+03    0.11473E-03   -0.93654E-05 10056   0.248E-02    0.735E-02
RMM:   7    -0.187622489310E+03    0.53052E-05   -0.24669E-05  7516   0.143E-02
  56 F= -.18762249E+03 E0= -.18762647E+03  d E =-.120396E-01  mag=    -0.0046
 curvature:  -0.36 expect dE=-0.474E-01 dE for cont linesearch -0.207E-03
 ZBRENT: extrapolating
 opt :   0.1237  next Energy=  -187.622724 (dE=-0.123E-01)
 bond charge predicted
       N       E                     dE             d eps       ncg     rms          rms(c)
DAV:   1    -0.187622468378E+03    0.26237E-04   -0.93710E-02 11584   0.909E-01    0.903E-02
RMM:   2    -0.187622675069E+03   -0.20669E-03   -0.24085E-03 10880   0.157E-01    0.108E-01
RMM:   3    -0.187622701137E+03   -0.26068E-04   -0.15664E-04 11098   0.447E-02    0.140E-01
RMM:   4    -0.187622634628E+03    0.66509E-04   -0.47168E-05  8675   0.185E-02    0.358E-02
RMM:   5    -0.187622634618E+03    0.10377E-07   -0.25968E-05  7285   0.149E-02
  57 F= -.18762263E+03 E0= -.18762656E+03  d E =-.121849E-01  mag=    -0.0041
 curvature:  -0.41 expect dE=-0.662E-01 dE for cont linesearch -0.383E-04
 trial: gam= 0.75139 g(F)=  0.147E+00 g(S)=  0.143E-01 ort =-0.109E-01 (trialstep = 0.693E-01)
 search vector abs. value=  0.867E+00
 bond charge predicted
       N       E                     dE             d eps       ncg     rms          rms(c)
DAV:   1    -0.187629716347E+03   -0.70817E-02   -0.10314E+00 10880   0.303E+00    0.283E-01
RMM:   2    -0.187632054891E+03   -0.23385E-02   -0.25610E-02 10880   0.504E-01    0.375E-01
RMM:   3    -0.187632161138E+03   -0.10625E-03   -0.15031E-03 11625   0.146E-01    0.428E-01
RMM:   4    -0.187631613383E+03    0.54776E-03   -0.41202E-04 12053   0.512E-02    0.142E-01
RMM:   5    -0.187631676140E+03   -0.62757E-04   -0.32711E-04 10678   0.446E-02    0.216E-01
RMM:   6    -0.187631628776E+03    0.47364E-04   -0.15286E-04 10701   0.312E-02    0.195E-01
RMM:   7    -0.187631510100E+03    0.11868E-03   -0.67248E-05  9166   0.215E-02    0.839E-02
RMM:   8    -0.187631483201E+03    0.26899E-04   -0.53462E-05  8742   0.176E-02    0.311E-02
RMM:   9    -0.187631481797E+03    0.14037E-05   -0.10250E-05  6325   0.116E-02
  58 F= -.18763148E+03 E0= -.18763522E+03  d E =-.884718E-02  mag=    -0.0034
 trial-energy change:   -0.008847  1 .order   -0.008679   -0.010630   -0.006728
 step:   0.1465(harm=  0.1888)  dis= 0.00563  next Energy=  -187.635461 (dE=-0.128E-01)
 bond charge predicted
       N       E                     dE             d eps       ncg     rms          rms(c)
DAV:   1    -0.187634976674E+03   -0.34935E-02   -0.12810E+00 10880   0.338E+00    0.308E-01
RMM:   2    -0.187637549975E+03   -0.25733E-02   -0.31909E-02 10880   0.562E-01    0.277E-01
RMM:   3    -0.187638216717E+03   -0.66674E-03   -0.18419E-03 11603   0.163E-01    0.518E-01
RMM:   4    -0.187637367590E+03    0.84913E-03   -0.45617E-04 12025   0.560E-02    0.167E-01
RMM:   5    -0.187637459018E+03   -0.91429E-04   -0.41860E-04 10792   0.501E-02    0.240E-01
RMM:   6    -0.187637263865E+03    0.19515E-03   -0.16229E-04 10676   0.323E-02    0.117E-01
RMM:   7    -0.187637270024E+03   -0.61583E-05   -0.64743E-05  9294   0.209E-02
  59 F= -.18763727E+03 E0= -.18764074E+03  d E =-.146354E-01  mag=    -0.0028
 curvature:  -0.47 expect dE=-0.635E-01 dE for cont linesearch -0.150E-02
 ZBRENT: increasing intervall
 opt :   0.3008  next Energy=  -187.638561 (dE=-0.159E-01)
 bond charge predicted
       N       E                     dE             d eps       ncg     rms          rms(c)
DAV:   1    -0.187631592380E+03    0.56715E-02   -0.51231E+00 10880   0.675E+00    0.613E-01
RMM:   2    -0.187642078273E+03   -0.10486E-01   -0.12662E-01 10880   0.112E+00    0.608E-01
RMM:   3    -0.187644928410E+03   -0.28501E-02   -0.75899E-03 11582   0.328E-01    0.111E+00
RMM:   4    -0.187641124760E+03    0.38037E-02   -0.19949E-03 12240   0.116E-01    0.316E-01
RMM:   5    -0.187641564193E+03   -0.43943E-03   -0.16699E-03 11605   0.101E-01    0.490E-01
RMM:   6    -0.187640971805E+03    0.59239E-03   -0.58901E-04 11733   0.613E-02    0.338E-01
RMM:   7    -0.187640678757E+03    0.29305E-03   -0.30069E-04 11351   0.434E-02    0.219E-01
RMM:   8    -0.187640522502E+03    0.15625E-03   -0.21688E-04 11697   0.331E-02    0.583E-02
RMM:   9    -0.187640505867E+03    0.16635E-04   -0.45875E-05  8892   0.194E-02    0.536E-02
RMM:  10    -0.187640506965E+03   -0.10983E-05   -0.12489E-05  6616   0.118E-02
  60 F= -.18764051E+03 E0= -.18764361E+03  d E =-.178723E-01  mag=    -0.0022
 curvature:  -0.40 expect dE=-0.119E+00 dE for cont linesearch -0.209E-03
 trial: gam= 1.96149 g(F)=  0.279E+00 g(S)=  0.172E-01 ort =-0.212E-01 (trialstep = 0.282E-01)
 search vector abs. value=  0.355E+01
 bond charge predicted
       N       E                     dE             d eps       ncg     rms          rms(c)
DAV:   1    -0.187645609668E+03   -0.51038E-02   -0.71317E-01 11072   0.251E+00    0.211E-01
RMM:   2    -0.187647289277E+03   -0.16796E-02   -0.17274E-02 10882   0.410E-01    0.272E-01
RMM:   3    -0.187647414465E+03   -0.12519E-03   -0.94892E-04 11476   0.120E-01    0.349E-01
RMM:   4    -0.187647080022E+03    0.33444E-03   -0.20445E-04 12166   0.349E-02    0.122E-01
RMM:   5    -0.187647134316E+03   -0.54294E-04   -0.15687E-04 10044   0.307E-02    0.173E-01
[...]
RMM:   3    -0.188074986000E+03    0.71996E-04   -0.13668E-05  6236   0.130E-02    0.173E-02
RMM:   4    -0.188074983792E+03    0.22076E-05   -0.42889E-06  5566   0.741E-03
 257 F= -.18807498E+03 E0= -.18807906E+03  d E =-.485555E-04  mag=    -0.0000
 trial-energy change:   -0.000049  1 .order   -0.000048   -0.000061   -0.000035
 step:   0.1776(harm=  0.1776)  dis= 0.00066  next Energy=  -188.075007 (dE=-0.721E-04)
 bond charge predicted
       N       E                     dE             d eps       ncg     rms          rms(c)
DAV:   1    -0.188074996797E+03   -0.10797E-04   -0.64327E-03 10912   0.225E-01    0.242E-02
RMM:   2    -0.188075020709E+03   -0.23911E-04   -0.14148E-04 10100   0.369E-02    0.569E-02
RMM:   3    -0.188075009456E+03    0.11253E-04   -0.89670E-06  5834   0.117E-02    0.223E-02
RMM:   4    -0.188075008204E+03    0.12512E-05   -0.32821E-06  5648   0.674E-03
 258 F= -.18807501E+03 E0= -.18807908E+03  d E =-.729675E-04  mag=    -0.0000
 curvature:  -0.26 expect dE=-0.382E-03 dE for cont linesearch -0.269E-07
 trial: gam= 2.05150 g(F)=  0.142E-02 g(S)=  0.661E-04 ort =-0.157E-04 (trialstep = 0.198E-01)
 search vector abs. value=  0.113E-01
 bond charge predicted
       N       E                     dE             d eps       ncg     rms          rms(c)
DAV:   1    -0.188075036457E+03   -0.27001E-04   -0.11580E-03 11392   0.969E-02    0.265E-02
RMM:   2    -0.188075109019E+03   -0.72562E-04   -0.48070E-05  8798   0.221E-02    0.130E-01
RMM:   3    -0.188075038268E+03    0.70751E-04   -0.13549E-05  6114   0.137E-02    0.151E-02
RMM:   4    -0.188075036645E+03    0.16222E-05   -0.33778E-06  5369   0.645E-03
 259 F= -.18807504E+03 E0= -.18807911E+03  d E =-.284411E-04  mag=    -0.0000
 ZBRENT: can't locate minimum, use default step
 trial-energy change:   -0.000028  1 .order   -0.000027   -0.000029   -0.000026
 step:   0.0794(harm=  0.2166)  dis= 0.00066  next Energy=  -188.075165 (dE=-0.157E-03)
 bond charge predicted
       N       E                     dE             d eps       ncg     rms          rms(c)
DAV:   1    -0.188075086547E+03   -0.48280E-04   -0.10382E-02 10944   0.290E-01    0.302E-02
RMM:   2    -0.188075118104E+03   -0.31556E-04   -0.22845E-04 10474   0.462E-02    0.591E-02
RMM:   3    -0.188075107672E+03    0.10432E-04   -0.12767E-05  6113   0.141E-02    0.317E-02
RMM:   4    -0.188075105448E+03    0.22243E-05   -0.44503E-06  5681   0.773E-03
 260 F= -.18807511E+03 E0= -.18807917E+03  d E =-.972434E-04  mag=    -0.0000
 curvature:  -0.43 expect dE=-0.491E-03 dE for cont linesearch -0.379E-04
 ZBRENT: increasing intervall
 opt :   0.1984  next Energy=  -188.075185 (dE=-0.177E-03)
 bond charge predicted
       N       E                     dE             d eps       ncg     rms          rms(c)
DAV:   1    -0.188075107754E+03   -0.82026E-07   -0.41496E-02 10880   0.580E-01    0.607E-02
RMM:   2    -0.188075234087E+03   -0.12633E-03   -0.93304E-04 10940   0.938E-02    0.109E-01
RMM:   3    -0.188075192094E+03    0.41993E-04   -0.56618E-05  9100   0.264E-02    0.603E-02
RMM:   4    -0.188075188777E+03    0.33171E-05   -0.20811E-05  7220   0.131E-02
 261 F= -.18807519E+03 E0= -.18807926E+03  d E =-.180572E-03  mag=    -0.0000
 curvature:  -0.91 expect dE=-0.139E-02 dE for cont linesearch -0.590E-05
 trial: gam= 0.52544 g(F)=  0.141E-02 g(S)=  0.106E-03 ort = 0.270E-03 (trialstep = 0.556E-01)
 search vector abs. value=  0.493E-02
 bond charge predicted
       N       E                     dE             d eps       ncg     rms          rms(c)
DAV:   1    -0.188075244257E+03   -0.52163E-04   -0.38931E-03 11536   0.175E-01    0.297E-02
RMM:   2    -0.188075286117E+03   -0.41860E-04   -0.11075E-04 10252   0.320E-02    0.844E-02
RMM:   3    -0.188075252375E+03    0.33742E-04   -0.12234E-05  6098   0.122E-02    0.310E-02
RMM:   4    -0.188075249333E+03    0.30418E-05   -0.71692E-06  5860   0.840E-03
 262 F= -.18807525E+03 E0= -.18807930E+03  d E =-.605566E-04  mag=    -0.0000
 trial-energy change:   -0.000061  1 .order   -0.000069   -0.000092   -0.000045
 step:   0.1078(harm=  0.1078)  dis= 0.00054  next Energy=  -188.075278 (dE=-0.895E-04)
 bond charge predicted
       N       E                     dE             d eps       ncg     rms          rms(c)
DAV:   1    -0.188075264925E+03   -0.12550E-04   -0.34308E-03 11024   0.162E-01    0.164E-02
RMM:   2    -0.188075271435E+03   -0.65104E-05   -0.78074E-05  9070   0.283E-02
 263 F= -.18807527E+03 E0= -.18807933E+03  d E =-.826586E-04  mag=    -0.0000
 curvature:  -0.16 expect dE=-0.138E-03 dE for cont linesearch -0.299E-06
 trial: gam= 0.67127 g(F)=  0.729E-03 g(S)=  0.137E-03 ort =-0.960E-04 (trialstep = 0.660E-01)
 search vector abs. value=  0.296E-02
 bond charge predicted
       N       E                     dE             d eps       ncg     rms          rms(c)
DAV:   1    -0.188075316301E+03   -0.51376E-04   -0.33443E-03 11040   0.166E-01    0.382E-02
RMM:   2    -0.188075417411E+03   -0.10111E-03   -0.11610E-04 10154   0.349E-02    0.159E-01
RMM:   3    -0.188075319459E+03    0.97952E-04   -0.21096E-05  6916   0.152E-02    0.208E-02
RMM:   4    -0.188075318154E+03    0.13046E-05   -0.66630E-06  5781   0.983E-03
 264 F= -.18807532E+03 E0= -.18807937E+03  d E =-.467192E-04  mag=    -0.0000
 trial-energy change:   -0.000047  1 .order   -0.000044   -0.000053   -0.000034
 step:   0.1889(harm=  0.1889)  dis= 0.00076  next Energy=  -188.075347 (dE=-0.757E-04)
 bond charge predicted
       N       E                     dE             d eps       ncg     rms          rms(c)
DAV:   1    -0.188075336870E+03   -0.17411E-04   -0.11292E-02 10880   0.305E-01    0.443E-02
RMM:   2    -0.188075370743E+03   -0.33873E-04   -0.28933E-04 10880   0.537E-02    0.730E-02
RMM:   3    -0.188075357476E+03    0.13267E-04   -0.20448E-05  6854   0.153E-02    0.505E-02
RMM:   4    -0.188075351225E+03    0.62510E-05   -0.12076E-05  6022   0.126E-02
 265 F= -.18807535E+03 E0= -.18807940E+03  d E =-.797902E-04  mag=    -0.0000
 curvature:  -0.35 expect dE=-0.432E-03 dE for cont linesearch -0.115E-06
 trial: gam= 1.47447 g(F)=  0.108E-02 g(S)=  0.162E-03 ort =-0.313E-04 (trialstep = 0.354E-01)
 search vector abs. value=  0.758E-02
 bond charge predicted
       N       E                     dE             d eps       ncg     rms          rms(c)
DAV:   1    -0.188075384004E+03   -0.26527E-04   -0.24412E-03 11488   0.142E-01    0.267E-02
RMM:   2    -0.188075414143E+03   -0.30139E-04   -0.80635E-05  9446   0.288E-02    0.713E-02
RMM:   3    -0.188075387829E+03    0.26314E-04   -0.97602E-06  5870   0.118E-02    0.267E-02
RMM:   4    -0.188075384864E+03    0.29652E-05   -0.41200E-06  5551   0.617E-03
 266 F= -.18807538E+03 E0= -.18807943E+03  d E =-.336383E-04  mag=    -0.0000
 ZBRENT: can't locate minimum, use default step
 trial-energy change:   -0.000034  1 .order   -0.000037   -0.000042   -0.000033
 step:   0.1414(harm=  0.1538)  dis= 0.00092  next Energy=  -188.075443 (dE=-0.918E-04)
 bond charge predicted
       N       E                     dE             d eps       ncg     rms          rms(c)
DAV:   1    -0.188075391107E+03   -0.32778E-05   -0.21859E-02 10880   0.418E-01    0.492E-02
RMM:   2    -0.188075436432E+03   -0.45325E-04   -0.47856E-04 10946   0.673E-02    0.557E-02
RMM:   3    -0.188075443297E+03   -0.68652E-05   -0.30969E-05  7498   0.198E-02
 267 F= -.18807544E+03 E0= -.18807946E+03  d E =-.920719E-04  mag=    -0.0000
 curvature:  -0.48 expect dE=-0.920E-03 dE for cont linesearch -0.499E-07
 trial: gam= 1.14140 g(F)=  0.172E-02 g(S)=  0.188E-03 ort =-0.280E-04 (trialstep = 0.366E-01)
 search vector abs. value=  0.117E-01
 bond charge predicted
       N       E                     dE             d eps       ncg     rms          rms(c)
DAV:   1    -0.188075479900E+03   -0.43468E-04   -0.41418E-03 11408   0.180E-01    0.292E-02
RMM:   2    -0.188075489489E+03   -0.95886E-05   -0.10030E-04  9744   0.294E-02    0.370E-02
RMM:   3    -0.188075484787E+03    0.47022E-05   -0.97377E-06  6044   0.115E-02
 268 F= -.18807548E+03 E0= -.18807952E+03  d E =-.414892E-04  mag=    -0.0000
 trial-energy change:   -0.000041  1 .order   -0.000058   -0.000069   -0.000048
 step:   0.1244(harm=  0.1244)  dis= 0.00095  next Energy=  -188.075560 (dE=-0.117E-03)
 bond charge predicted
       N       E                     dE             d eps       ncg     rms          rms(c)
DAV:   1    -0.188075500814E+03   -0.11325E-04   -0.23381E-02 10880   0.428E-01    0.578E-02
RMM:   2    -0.188075684355E+03   -0.18354E-03   -0.55554E-04 10830   0.710E-02    0.195E-01
RMM:   3    -0.188075535492E+03    0.14886E-03   -0.58527E-05  9208   0.254E-02    0.479E-02
RMM:   4    -0.188075527498E+03    0.79940E-05   -0.14910E-05  6732   0.117E-02
 269 F= -.18807553E+03 E0= -.18807956E+03  d E =-.842006E-04  mag=    -0.0000
 curvature:  -0.39 expect dE=-0.518E-03 dE for cont linesearch -0.370E-06
 trial: gam= 0.80721 g(F)=  0.108E-02 g(S)=  0.245E-03 ort =-0.106E-03 (trialstep = 0.542E-01)
 search vector abs. value=  0.879E-02
 bond charge predicted
       N       E                     dE             d eps       ncg     rms          rms(c)
DAV:   1    -0.188075571567E+03   -0.36075E-04   -0.67313E-03 11008   0.233E-01    0.414E-02
RMM:   2    -0.188075643572E+03   -0.72005E-04   -0.19971E-04 10338   0.450E-02    0.121E-01
RMM:   3    -0.188075580801E+03    0.62770E-04   -0.24595E-05  7382   0.166E-02    0.389E-02
RMM:   4    -0.188075576898E+03    0.39036E-05   -0.12849E-05  6410   0.116E-02
 270 F= -.18807558E+03 E0= -.18807962E+03  d E =-.493998E-04  mag=    -0.0000
 trial-energy change:   -0.000049  1 .order   -0.000053   -0.000067   -0.000038
 step:   0.1249(harm=  0.1249)  dis= 0.00076  next Energy=  -188.075605 (dE=-0.777E-04)
 bond charge predicted
       N       E                     dE             d eps       ncg     rms          rms(c)
DAV:   1    -0.188075584120E+03   -0.33190E-05   -0.11517E-02 10880   0.303E-01    0.332E-02
RMM:   2    -0.188075600584E+03   -0.16464E-04   -0.27107E-04 10596   0.501E-02    0.391E-02
RMM:   3    -0.188075602788E+03   -0.22034E-05   -0.17098E-05  6632   0.146E-02
 271 F= -.18807560E+03 E0= -.18807964E+03  d E =-.752897E-04  mag=    -0.0000
 curvature:  -0.44 expect dE=-0.367E-03 dE for cont linesearch -0.147E-06
 trial: gam= 0.32530 g(F)=  0.630E-03 g(S)=  0.201E-03 ort =-0.541E-04 (trialstep = 0.683E-01)
 search vector abs. value=  0.173E-02
 bond charge predicted
       N       E                     dE             d eps       ncg     rms          rms(c)
DAV:   1    -0.188075638024E+03   -0.37440E-04   -0.19464E-03 11664   0.125E-01    0.329E-02
RMM:   2    -0.188075653663E+03   -0.15638E-04   -0.64590E-05  9204   0.254E-02    0.499E-02
RMM:   3    -0.188075641999E+03    0.11664E-04   -0.11281E-05  5987   0.121E-02    0.334E-02
RMM:   4    -0.188075642263E+03   -0.26394E-06   -0.53026E-06  5728   0.721E-03
 272 F= -.18807564E+03 E0= -.18807971E+03  d E =-.394752E-04  mag=    -0.0000
 trial-energy change:   -0.000039  1 .order   -0.000045   -0.000056   -0.000035
 step:   0.1825(harm=  0.1825)  dis= 0.00028  next Energy=  -188.075677 (dE=-0.743E-04)
 bond charge predicted
       N       E                     dE             d eps       ncg     rms          rms(c)
DAV:   1    -0.188075660799E+03   -0.18800E-04   -0.52561E-03 10944   0.207E-01    0.368E-02
RMM:   2    -0.188075670537E+03   -0.97375E-05   -0.13429E-04 10714   0.370E-02    0.315E-02
RMM:   3    -0.188075679564E+03   -0.90275E-05   -0.10410E-05  6222   0.116E-02
 273 F= -.18807568E+03 E0= -.18807976E+03  d E =-.767764E-04  mag=    -0.0000
 curvature:  -0.19 expect dE=-0.157E-03 dE for cont linesearch -0.620E-07
 trial: gam= 0.93828 g(F)=  0.570E-03 g(S)=  0.240E-03 ort = 0.235E-04 (trialstep = 0.663E-01)
 search vector abs. value=  0.237E-02
 bond charge predicted
       N       E                     dE             d eps       ncg     rms          rms(c)
DAV:   1    -0.188075712517E+03   -0.41981E-04   -0.23876E-03 11168   0.141E-01    0.305E-02
RMM:   2    -0.188075719474E+03   -0.69563E-05   -0.69089E-05  9540   0.260E-02
 274 F= -.18807572E+03 E0= -.18807980E+03  d E =-.399097E-04  mag=    -0.0000
 trial-energy change:   -0.000040  1 .order   -0.000042   -0.000055   -0.000029
 step:   0.1380(harm=  0.1380)  dis= 0.00026  next Energy=  -188.075737 (dE=-0.574E-04)
 bond charge predicted
       N       E                     dE             d eps       ncg     rms          rms(c)
DAV:   1    -0.188075733970E+03   -0.21453E-04   -0.27803E-03 11008   0.155E-01    0.405E-02
RMM:   2    -0.188075781628E+03   -0.47657E-04   -0.95749E-05 10366   0.317E-02    0.113E-01
RMM:   3    -0.188075731472E+03    0.50155E-04   -0.12322E-05  6167   0.123E-02    0.330E-02
RMM:   4    -0.188075731654E+03   -0.18119E-06   -0.96150E-06  6139   0.990E-03
 275 F= -.18807573E+03 E0= -.18807980E+03  d E =-.520896E-04  mag=    -0.0000
 curvature:  -0.20 expect dE=-0.951E-04 dE for cont linesearch -0.366E-06
 trial: gam= 0.46042 g(F)=  0.370E-03 g(S)=  0.113E-03 ort = 0.665E-04 (trialstep = 0.806E-01)
 search vector abs. value=  0.105E-02
 bond charge predicted
       N       E                     dE             d eps       ncg     rms          rms(c)
DAV:   1    -0.188075758870E+03   -0.27397E-04   -0.15196E-03 11520   0.117E-01    0.260E-02
RMM:   2    -0.188075763076E+03   -0.42063E-05   -0.57276E-05  9398   0.249E-02
 276 F= -.18807576E+03 E0= -.18807982E+03  d E =-.314223E-04  mag=    -0.0000
 trial-energy change:   -0.000031  1 .order   -0.000028   -0.000041   -0.000015
 step:   0.1249(harm=  0.1249)  dis= 0.00018  next Energy=  -188.075764 (dE=-0.321E-04)
 bond charge predicted
       N       E                     dE             d eps       ncg     rms          rms(c)
DAV:   1    -0.188075764118E+03   -0.52481E-05   -0.61347E-04 12304   0.715E-02    0.380E-02
RMM:   2    -0.188075884283E+03   -0.12017E-03   -0.56125E-05  8904   0.245E-02    0.174E-01
RMM:   3    -0.188075759459E+03    0.12482E-03   -0.21887E-05  6888   0.162E-02    0.176E-02
RMM:   4    -0.188075757006E+03    0.24531E-05   -0.54099E-06  5568   0.865E-03
 277 F= -.18807576E+03 E0= -.18807980E+03  d E =-.253522E-04  mag=    -0.0000
 curvature:  -0.13 expect dE=-0.244E-04 dE for cont linesearch -0.266E-07
 trial: gam= 0.40625 g(F)=  0.152E-03 g(S)=  0.395E-04 ort =-0.148E-04 (trialstep = 0.895E-01)
 search vector abs. value=  0.353E-03
 bond charge predicted
       N       E                     dE             d eps       ncg     rms          rms(c)
DAV:   1    -0.188075766744E+03   -0.72852E-05   -0.68664E-04 10992   0.747E-02    0.174E-02
RMM:   2    -0.188075787943E+03   -0.21199E-04   -0.20847E-05  6461   0.160E-02    0.727E-02
RMM:   3    -0.188075767384E+03    0.20559E-04   -0.67351E-06  5494   0.110E-02    0.101E-02
RMM:   4    -0.188075766825E+03    0.55946E-06   -0.17025E-06  5468   0.427E-03
 278 F= -.18807577E+03 E0= -.18807981E+03  d E =-.981900E-05  mag=    -0.0000
 trial-energy change:   -0.000010  1 .order   -0.000012   -0.000017   -0.000006
 step:   0.1463(harm=  0.1463)  dis= 0.00021  next Energy=  -188.075771 (dE=-0.136E-04)
 bond charge predicted
       N       E                     dE             d eps       ncg     rms          rms(c)
DAV:   1    -0.188075769003E+03   -0.16185E-05   -0.27791E-04 10736   0.471E-02    0.989E-03
RMM:   2    -0.188075772287E+03   -0.32845E-05   -0.77343E-06  5565   0.948E-03
 279 F= -.18807577E+03 E0= -.18807981E+03  d E =-.152814E-04  mag=    -0.0000
 curvature:  -0.14 expect dE=-0.278E-04 dE for cont linesearch -0.577E-09
 trial: gam= 0.74139 g(F)=  0.141E-03 g(S)=  0.594E-04 ort = 0.121E-05 (trialstep = 0.899E-01)
 search vector abs. value=  0.396E-03
 bond charge predicted
       N       E                     dE             d eps       ncg     rms          rms(c)
DAV:   1    -0.188075784013E+03   -0.15011E-04   -0.74690E-04 11136   0.803E-02    0.142E-02
RMM:   2    -0.188075785673E+03   -0.16599E-05   -0.18281E-05  5903   0.143E-02
 280 F= -.18807579E+03 E0= -.18807982E+03  d E =-.133860E-04  mag=    -0.0000
 trial-energy change:   -0.000013  1 .order   -0.000014   -0.000018   -0.000011
 step:   0.2239(harm=  0.2239)  dis= 0.00021  next Energy=  -188.075795 (dE=-0.225E-04)
 bond charge predicted
       N       E                     dE             d eps       ncg     rms          rms(c)
DAV:   1    -0.188075795310E+03   -0.11296E-04   -0.16522E-03 11008   0.119E-01    0.266E-02
RMM:   2    -0.188075820805E+03   -0.25496E-04   -0.47772E-05  8476   0.221E-02    0.819E-02
RMM:   3    -0.188075793965E+03    0.26840E-04   -0.90410E-06  5687   0.117E-02    0.205E-02
RMM:   4    -0.188075791954E+03    0.20109E-05   -0.35597E-06  5543   0.673E-03
 281 F= -.18807579E+03 E0= -.18807984E+03  d E =-.196670E-04  mag=    -0.0000
 curvature:  -0.22 expect dE=-0.271E-04 dE for cont linesearch -0.219E-06
 trial: gam= 0.68869 g(F)=  0.116E-03 g(S)=  0.660E-05 ort = 0.198E-04 (trialstep = 0.117E+00)
 search vector abs. value=  0.338E-03
 bond charge predicted
       N       E                     dE             d eps       ncg     rms          rms(c)
DAV:   1    -0.188075798280E+03   -0.43148E-05   -0.10996E-03 11072   0.973E-02    0.195E-02
RMM:   2    -0.188075805254E+03   -0.69737E-05   -0.34026E-05  7786   0.199E-02
 282 F= -.18807581E+03 E0= -.18807984E+03  d E =-.132994E-04  mag=    -0.0000
 trial-energy change:   -0.000013  1 .order   -0.000009   -0.000016   -0.000001
 step:   0.1272(harm=  0.1272)  dis= 0.00012  next Energy=  -188.075801 (dE=-0.868E-05)
 bond charge predicted
       N       E                     dE             d eps       ncg     rms          rms(c)
DAV:   1    -0.188075799322E+03   -0.10418E-05   -0.10733E-04  7472   0.298E-02    0.263E-02
RMM:   2    -0.188075874606E+03   -0.75285E-04   -0.25265E-05  7346   0.170E-02    0.136E-01
RMM:   3    -0.188075798079E+03    0.76528E-04   -0.15248E-05  6224   0.148E-02    0.106E-02
RMM:   4    -0.188075797139E+03    0.93920E-06   -0.26075E-06  5318   0.592E-03
 283 F= -.18807580E+03 E0= -.18807984E+03  d E =-.518525E-05  mag=    -0.0000
 curvature:  -0.16 expect dE=-0.113E-04 dE for cont linesearch -0.541E-07
 trial: gam= 0.65396 g(F)=  0.583E-04 g(S)=  0.135E-04 ort =-0.108E-04 (trialstep = 0.119E+00)
 search vector abs. value=  0.202E-03
 bond charge predicted
       N       E                     dE             d eps       ncg     rms          rms(c)
DAV:   1    -0.188075800953E+03   -0.28741E-05   -0.74750E-04 10832   0.765E-02    0.103E-02
RMM:   2    -0.188075807605E+03   -0.66523E-05   -0.17023E-05  5872   0.138E-02
 284 F= -.18807581E+03 E0= -.18807985E+03  d E =-.104656E-04  mag=    -0.0000
 trial-energy change:   -0.000010  1 .order   -0.000004   -0.000008   -0.000000
 step:   0.1255(harm=  0.1255)  dis= 0.00009  next Energy=  -188.075801 (dE=-0.407E-05)
 bond charge predicted
       N       E                     dE             d eps       ncg     rms          rms(c)
DAV:   1    -0.188075802226E+03   -0.12736E-05   -0.56134E-05  5968   0.187E-02    0.844E-03
RMM:   2    -0.188075807057E+03   -0.48306E-05   -0.29900E-06  5145   0.697E-03
 285 F= -.18807581E+03 E0= -.18807985E+03  d E =-.991747E-05  mag=    -0.0000
 curvature:  -0.20 expect dE=-0.133E-04 dE for cont linesearch -0.220E-07
 trial: gam= 0.73263 g(F)=  0.509E-04 g(S)=  0.170E-04 ort =-0.477E-05 (trialstep = 0.120E+00)
 search vector abs. value=  0.169E-03
 bond charge predicted
       N       E                     dE             d eps       ncg     rms          rms(c)
DAV:   1    -0.188075808955E+03   -0.67285E-05   -0.66257E-04 10928   0.748E-02    0.107E-02
RMM:   2    -0.188075812280E+03   -0.33252E-05   -0.15845E-05  5728   0.137E-02
 286 F= -.18807581E+03 E0= -.18807986E+03  d E =-.522317E-05  mag=    -0.0000
 trial-energy change:   -0.000005  1 .order   -0.000006   -0.000008   -0.000004
 step:   0.2403(harm=  0.2403)  dis= 0.00014  next Energy=  -188.075815 (dE=-0.774E-05)
 reached required accuracy - stopping structural energy minimisation
