SrIr2O4 prototype                       
           1
     4.650866   -0.000002   -0.000000
    -0.000002    4.847495   -0.000013
    -0.000001   -0.000036   15.441037
   Sr   Ir   O 
   4   8  16
Direct configuration=     1
   0.50831693  0.04269785  0.12500000
   0.00831690  0.45730215  0.37500000
   0.50831693  0.04269785  0.62500000
   0.00831690  0.45730215  0.87500000
   0.00000000  0.00000000  0.25000000
   0.00000000  0.00000000  0.00000000
   0.50000000  0.50000000  0.25000000
   0.50000000  0.50000000  0.00000000
   0.00000000  0.00000000  0.75000000
   0.00000000  0.00000000  0.50000000
   0.50000000  0.50000000  0.75000000
   0.50000000  0.50000000  0.50000000
   0.29573488  0.20539931  0.47997263
   0.79573488  0.29460069  0.22997263
   0.79573488  0.29460069  0.02002737
   0.70426512  0.79460073  0.02002737
   0.20426513  0.70539927  0.27002737
   0.70426512  0.79460073  0.22997263
   0.20426513  0.70539927  0.47997263
   0.29573488  0.20539931  0.27002737
   0.29573488  0.20539931  0.97997260
   0.79573488  0.29460069  0.72997260
   0.79573488  0.29460069  0.52002740
   0.70426512  0.79460073  0.52002740
   0.20426513  0.70539927  0.77002740
   0.70426512  0.79460073  0.72997260
   0.20426513  0.70539927  0.97997260
   0.29573488  0.20539931  0.77002740
SrIr2O4 prototype                       
           1
     5.238863   -0.000001   -0.000000
    -0.000001    5.359686   -0.000005
    -0.000000   -0.000013   15.674513
   Sr   Ir   O 
   4   8  16
Direct configuration=     2
   0.50430499  0.04409658  0.12499976
   0.00430477  0.45590819  0.37499728
   0.50430411  0.04409291  0.62500391
   0.00430619  0.45590724  0.87499915
   0.00206483 -0.00421908  0.24975163
   0.00206712 -0.00421884  0.00024792
   0.50206752  0.50421842  0.25024774
   0.50206488  0.50421790 -0.00024833
   0.00206771 -0.00420944  0.74975223
   0.00206717 -0.00421176  0.50024823
   0.50206847  0.50420965  0.75024799
   0.50206736  0.50421107  0.49975222
   0.29124157  0.20993689  0.48231258
   0.79124919  0.29005511  0.23231147
   0.79125461  0.29004984  0.01768831
   0.70869720  0.78959486  0.01724097
   0.20868949  0.71041137  0.26724163
   0.70869200  0.78958946  0.23275867
   0.20868467  0.71041992  0.48275973
   0.29124701  0.20994382  0.26768829
   0.29124247  0.20993717  0.98231145
   0.79124698  0.29005757  0.73231166
   0.79125596  0.29004783  0.51768768
   0.70869887  0.78959454  0.51724046
   0.20869043  0.71040760  0.76724218
   0.70868802  0.78958963  0.73275793
   0.20868490  0.71041678  0.98275871
   0.29124924  0.20994478  0.76768856
SrIr2O4 prototype                       
           1
     5.204212   -0.000001   -0.000000
    -0.000001    5.329503   -0.000005
    -0.000000   -0.000014   15.660754
   Sr   Ir   O 
   4   8  16
Direct configuration=     3
   0.50742019  0.04303954  0.12499992
   0.00742012  0.45696163  0.37499909
   0.50741999  0.04303864  0.62500131
   0.00742044  0.45696140  0.87499972
   0.00046153 -0.00103066  0.24991684
   0.00046204 -0.00103060  0.00008301
   0.50046213  0.50103049  0.25008295
   0.50046154  0.50103037 -0.00008315
   0.00046217 -0.00102830  0.74991704
   0.00046205 -0.00102887  0.50008312
   0.50046234  0.50102835  0.75008303
   0.50046209  0.50102870  0.49991703
   0.29473054  0.20650776  0.48075610
   0.79473225  0.29349027  0.23075574
   0.79473346  0.29348900  0.01924420
   0.70525577  0.79337788  0.01909442
   0.20525406  0.70662366  0.26909463
   0.70525461  0.79337653  0.23090547
   0.20525298  0.70662573  0.48090582
   0.29473176  0.20650947  0.26924418
   0.29473074  0.20650783  0.98075570
   0.79473176  0.29349087  0.73075578
   0.79473376  0.29348851  0.51924400
   0.70525614  0.79337780  0.51909427
   0.20525427  0.70662275  0.76909483
   0.70525372  0.79337658  0.73090520
   0.20525303  0.70662496  0.98090546
   0.29473226  0.20650971  0.76924429
SrIr2O4 prototype                       
           1
     5.132043    0.000023    0.000005
     0.000023    5.385135    0.001422
     0.000015    0.004180   15.659451
   Sr   Ir   O 
   4   8  16
Direct configuration=     4
   0.50725722  0.04309588  0.12499991
   0.00725713  0.45690548  0.37499899
   0.50725698  0.04309484  0.62500146
   0.00725751  0.45690521  0.87499968
   0.00054541 -0.00120059  0.24990725
   0.00054601 -0.00120053  0.00009258
   0.50054611  0.50120041  0.25009251
   0.50054542  0.50120026 -0.00009274
   0.00054617 -0.00119785  0.74990747
   0.00054602 -0.00119851  0.50009270
   0.50054637  0.50119791  0.75009261
   0.50054607  0.50119832  0.49990747
   0.29454801  0.20669052  0.48084646
   0.79455003  0.29330718  0.23084605
   0.79455146  0.29330570  0.01915387
   0.70543581  0.79317625  0.01898682
   0.20543379  0.70682555  0.26898706
   0.70543444  0.79317469  0.23101305
   0.20543251  0.70682795  0.48101344
   0.29454945  0.20669252  0.26915386
   0.29454825  0.20669061  0.98084602
   0.79454945  0.29330788  0.73084610
   0.79455182  0.29330513  0.51915366
   0.70543625  0.79317616  0.51898665
   0.20543403  0.70682448  0.76898728
   0.70543339  0.79317473  0.73101276
   0.20543257  0.70682706  0.98101305
   0.29455004  0.20669279  0.76915398
SrIr2O4 prototype                       
           1
     5.142208    0.000019    0.000004
     0.000020    5.377300    0.001221
     0.000013    0.003590   15.659634
   Sr   Ir   O 
   4   8  16
Direct configuration=     5
   0.50243475  0.04636445  0.12512470
   0.00246123  0.45364002  0.37490525
   0.50246857  0.04635760  0.62510584
   0.00243999  0.45363260  0.87486307
  -0.00352358  0.00032931  0.25172651
  -0.00339792  0.00036434 -0.00172700
   0.49647045  0.49967009  0.24828054
   0.49661114  0.49963780  0.00172987
  -0.00353622  0.00030343  0.75171933
  -0.00343797  0.00034663  0.49827249
   0.49644681  0.49969571  0.74827599
   0.49657453  0.49966090  0.50172367
   0.29653969  0.20841804  0.48134361
   0.79660406  0.29168316  0.23129071
   0.79646975  0.29156785  0.01863491
   0.70989969  0.79016372  0.01726780
   0.20981959  0.70970033  0.26734378
   0.70983642  0.79031206  0.23265745
   0.20989775  0.70975935  0.48270776
   0.29658693  0.20830322  0.26870856
   0.29648094  0.20844336  0.98136509
   0.79661521  0.29168234  0.73128593
   0.79649831  0.29163114  0.51865645
   0.70985682  0.79019024  0.51729150
   0.20981077  0.70969917  0.76734871
   0.70983575  0.79033130  0.73265110
   0.20991199  0.70982583  0.98273245
   0.29659228  0.20828602  0.76871393
SrIr2O4 prototype                       
           1
     5.137335   -0.000054    0.000086
    -0.000057    5.386649    0.002027
     0.000260    0.005954   15.610195
   Sr   Ir   O 
   4   8  16
Direct configuration=     6
   0.50312351  0.04590886  0.12510716
   0.00314620  0.45409518  0.37491841
   0.50315247  0.04590282  0.62509118
   0.00312804  0.45408874  0.87488227
  -0.00294244  0.00011626  0.25147028
  -0.00283463  0.00014601 -0.00147068
   0.49705255  0.49988320  0.24853574
   0.49717305  0.49985578  0.00147312
  -0.00295316  0.00009437  0.75146414
  -0.00286896  0.00013106  0.49852890
   0.49703232  0.49990490  0.74853185
   0.49714176  0.49987539  0.50146783
   0.29625523  0.20817730  0.48127361
   0.79631069  0.29190958  0.23122806
   0.79619577  0.29181003  0.01870798
   0.70926215  0.79058344  0.01750989
   0.20919319  0.70929944  0.26757528
   0.70920771  0.79071126  0.23242579
   0.20926002  0.70935094  0.48246915
   0.29629594  0.20807866  0.26877130
   0.29620491  0.20819910  0.98129200
   0.79632017  0.29190897  0.73122396
   0.79622030  0.29186442  0.51872646
   0.70922546  0.79060625  0.51753023
   0.20918567  0.70929830  0.76757955
   0.70920699  0.79072782  0.73242029
   0.20927223  0.70940803  0.98249030
   0.29630060  0.20806390  0.76877593
SrIr2O4 prototype                       
           1
     5.136631   -0.000065    0.000097
    -0.000068    5.388000    0.002144
     0.000296    0.006295   15.603052
   Sr   Ir   O 
   4   8  16
Direct configuration=     7
   0.49648437  0.04637114  0.12532412
  -0.00348806  0.45374504  0.37471563
   0.49648022  0.04625355  0.62523569
  -0.00344454  0.45371465  0.87467135
  -0.00065173 -0.00169761  0.25231686
  -0.00149803 -0.00255970 -0.00272750
   0.49933037  0.50169652  0.24760702
   0.49846251  0.50254424  0.00270813
  -0.00065005 -0.00157916  0.75239175
  -0.00121000 -0.00248337  0.49730681
   0.49950145  0.50158561  0.74768202
   0.49867582  0.50243429  0.50275065
   0.29636439  0.20848257  0.48179375
   0.79641309  0.29181886  0.23165159
   0.79633488  0.29143103  0.01817841
   0.71074602  0.78463682  0.01564233
   0.21037673  0.71521508  0.26581817
   0.71037110  0.78477028  0.23418679
   0.21066198  0.71535572  0.48432925
   0.29641855  0.20819020  0.26835074
   0.29628228  0.20849545  0.98182258
   0.79639207  0.29181479  0.73166510
   0.79634404  0.29155488  0.51820832
   0.71061490  0.78459542  0.51567785
   0.21043265  0.71524752  0.76579492
   0.71040367  0.78471401  0.73420406
   0.21068716  0.71542778  0.98435958
   0.29643191  0.20822439  0.76833403
SrIr2O4 prototype                       
           1
     5.161348   -0.000204    0.001659
    -0.000213    5.407217   -0.006062
     0.005041   -0.017421   15.545376
   Sr   Ir   O 
   4   8  16
Direct configuration=     8
   0.49552422  0.04643779  0.12535557
  -0.00444751  0.45369454  0.37468625
   0.49551528  0.04630411  0.62525664
  -0.00439507  0.45366069  0.87464078
  -0.00032046 -0.00195928  0.25243958
  -0.00130473 -0.00294987 -0.00290964
   0.49965979  0.50195812  0.24747239
   0.49864898  0.50293192  0.00288711
  -0.00031698 -0.00182059  0.75252621
  -0.00097008 -0.00286038  0.49712970
   0.49985854  0.50182808  0.74755883
   0.49889767  0.50280328  0.50293657
   0.29638017  0.20852657  0.48186914
   0.79642789  0.29180575  0.23171298
   0.79635501  0.29137640  0.01810166
   0.71096062  0.78377925  0.01537169
   0.21054792  0.71606842  0.26556345
   0.71053932  0.78391329  0.23444208
   0.21086473  0.71622168  0.48459880
   0.29643629  0.20820632  0.26828978
   0.29629347  0.20853816  0.98189948
   0.79640246  0.29180118  0.73172904
   0.79636194  0.29151027  0.51813323
   0.71081584  0.78372859  0.51540941
   0.21061302  0.71610571  0.76553621
   0.71057671  0.78384652  0.73446264
   0.21089178  0.71629590  0.98463046
   0.29645090  0.20824757  0.76826998
SrIr2O4 prototype                       
           1
     5.165542   -0.000227    0.001924
    -0.000238    5.410478   -0.007454
     0.005847   -0.021445   15.535590
   Sr   Ir   O 
   4   8  16
Direct configuration=     9
   0.48832421  0.04388548  0.12542091
  -0.01167230  0.45594331  0.37465994
   0.48803750  0.04392468  0.62524161
  -0.01166162  0.45606993  0.87465289
   0.00028131 -0.00378572  0.25283439
  -0.00235594 -0.00420510 -0.00395627
   0.49929867  0.50363471  0.24701193
   0.49745050  0.50444600  0.00371491
  -0.00023916 -0.00335315  0.75309458
  -0.00324726 -0.00445384  0.49601727
   0.50032882  0.50418743  0.74687020
   0.49726297  0.50504782  0.50408700
   0.29647086  0.21013992  0.48261998
   0.79675730  0.29001403  0.23233742
   0.79632874  0.28968748  0.01737609
   0.71482600  0.78149068  0.01374058
   0.21477739  0.71776814  0.26396328
   0.71477504  0.78203384  0.23607271
   0.21490142  0.71815463  0.48626874
   0.29677065  0.20985194  0.26769835
   0.29629137  0.21009524  0.98265954
   0.79676944  0.28995249  0.73236954
   0.79650667  0.28969698  0.51742906
   0.71489362  0.78165473  0.51379230
   0.21491263  0.71780919  0.76392560
   0.71487769  0.78200788  0.73612315
   0.21481916  0.71838911  0.98629930
   0.29678203  0.20991219  0.76767506
SrIr2O4 prototype                       
           1
     5.193115    0.000363    0.001377
     0.000380    5.407166   -0.008950
     0.004215   -0.025671   15.575972
   Sr   Ir   O 
   4   8  16
Direct configuration=    10
   0.48710834  0.04345396  0.12543193
  -0.01289232  0.45632348  0.37465578
   0.48677474  0.04352233  0.62523896
  -0.01288869  0.45647725  0.87465529
   0.00038286 -0.00409424  0.25290146
  -0.00253330 -0.00441812 -0.00413461
   0.49923777  0.50391784  0.24693366
   0.49724800  0.50470261  0.00385605
  -0.00022612 -0.00361185  0.75319124
  -0.00363164 -0.00472410  0.49582771
   0.50040836  0.50458583  0.74675312
   0.49698675  0.50542817  0.50428315
   0.29648606  0.21041327  0.48274800
   0.79681283  0.28971156  0.23244360
   0.79632441  0.28940138  0.01725236
   0.71547898  0.78110253  0.01346251
   0.21549187  0.71805435  0.26369083
   0.71549005  0.78171730  0.23635018
   0.21558283  0.71848271  0.48655325
   0.29682722  0.21012974  0.26759776
   0.29629090  0.21035907  0.98278912
   0.79683130  0.28964040  0.73247846
   0.79653121  0.28938988  0.51730897
   0.71558247  0.78130290  0.51351663
   0.21563896  0.71809603  0.76365137
   0.71560372  0.78169826  0.73640572
   0.21548212  0.71874429  0.98658364
   0.29683805  0.21019320  0.76757388
SrIr2O4 prototype                       
           1
     5.184818    0.000185    0.001541
     0.000194    5.408163   -0.008500
     0.004706   -0.024399   15.563821
   Sr   Ir   O 
   4   8  16
Direct configuration=    11
   0.48167529  0.03977584  0.12533509
  -0.01860357  0.45974323  0.37491944
   0.48098524  0.04014002  0.62507021
  -0.01854748  0.45998878  0.87491525
  -0.00046452 -0.00542131  0.25164921
  -0.00313479 -0.00257154 -0.00520068
   0.49878730  0.50528798  0.24720391
   0.49741367  0.50311492  0.00500498
  -0.00038750 -0.00532123  0.75239327
  -0.00151792 -0.00243587  0.49530283
   0.50204607  0.50526180  0.74692417
   0.49686077  0.50323533  0.50468915
   0.29497247  0.21221307  0.48376634
   0.79604690  0.28729775  0.23331951
   0.79463905  0.28763074  0.01641071
   0.71894422  0.78059594  0.01230327
   0.21960090  0.71787922  0.26257965
   0.71971084  0.78184504  0.23762742
   0.21850427  0.71934179  0.48785965
   0.29606987  0.21245078  0.26691339
   0.29481607  0.21221329  0.98377909
   0.79604127  0.28722011  0.73335239
   0.79478189  0.28772017  0.51650796
   0.71890285  0.78061222  0.51240417
   0.21973664  0.71796173  0.76253485
   0.72025069  0.78220387  0.73769896
   0.21884079  0.71927308  0.98787516
   0.29629645  0.21274327  0.76686064
SrIr2O4 prototype                       
           1
     5.197164   -0.000141   -0.000853
    -0.000139    5.380719   -0.014463
    -0.002472   -0.041411   15.581230
   Sr   Ir   O 
   4   8  16
Direct configuration=    12
   0.48330130  0.04088311  0.12536432
  -0.01689407  0.45871335  0.37484027
   0.48271795  0.04115824  0.62512102
  -0.01685368  0.45893127  0.87483719
  -0.00021082 -0.00502149  0.25202508
  -0.00295460 -0.00312729 -0.00488078
   0.49892215  0.50487538  0.24712277
   0.49736391  0.50359269  0.00466021
  -0.00033918 -0.00480638  0.75263281
  -0.00215043 -0.00312464  0.49546027
   0.50155591  0.50505829  0.74687280
   0.49689836  0.50389547  0.50456736
   0.29542546  0.21167089  0.48346068
   0.79627598  0.28802429  0.23305671
   0.79514350  0.28816399  0.01666338
   0.71790716  0.78074885  0.01265116
   0.21837115  0.71793234  0.26291310
   0.71844742  0.78180642  0.23724405
   0.21762978  0.71908292  0.48746751
   0.29629670  0.21175208  0.26711872
   0.29525746  0.21165473  0.98348194
   0.79627756  0.28794860  0.73309018
   0.79530549  0.28822302  0.51674843
   0.71790913  0.78082054  0.51273802
   0.21851029  0.71800255  0.76286990
   0.71885973  0.78205149  0.73731076
   0.21783542  0.71911368  0.98748749
   0.29645871  0.21197563  0.76707463
SrIr2O4 prototype                       
           1
     5.195079   -0.000086   -0.000448
    -0.000082    5.385353   -0.013456
    -0.001260   -0.038538   15.578290
   Sr   Ir   O 
   4   8  16
Direct configuration=    13
   0.48211512  0.03766605  0.12520917
  -0.01852701  0.46150467  0.37509157
   0.48137695  0.03831625  0.62497526
  -0.01837946  0.46158309  0.87509252
   0.00085796 -0.00372624  0.25084148
  -0.00205553  0.00076349 -0.00396037
   0.50064044  0.50353067  0.24812777
   0.49754781  0.49918894  0.00418514
   0.00115486 -0.00413221  0.75111768
  -0.00347585  0.00294829  0.49597324
   0.50334272  0.50360353  0.74727232
   0.49745542  0.50041262  0.50404212
   0.29321393  0.21300709  0.48432527
   0.79456358  0.28620503  0.23383148
   0.79265055  0.28682064  0.01592473
   0.71966538  0.78073353  0.01205737
   0.22005518  0.71776640  0.26238292
   0.72035878  0.78173492  0.23781464
   0.21899636  0.71924520  0.48814112
   0.29462261  0.21334820  0.26642678
   0.29305032  0.21300359  0.98434333
   0.79490454  0.28579926  0.73385644
   0.79274369  0.28699447  0.51602761
   0.71969561  0.78083292  0.51217208
   0.22085204  0.71730022  0.76233587
   0.72129262  0.78248487  0.73788617
   0.21940479  0.71910593  0.98815622
   0.29514433  0.21395858  0.76635005
SrIr2O4 prototype                       
           1
     5.210355    0.000549   -0.002074
     0.000579    5.368781   -0.012328
    -0.006138   -0.035055   15.618885
   Sr   Ir   O 
   4   8  16
Direct configuration=    14
   0.48231500  0.03821211  0.12523558
  -0.01825204  0.46103084  0.37504905
   0.48160290  0.03879866  0.62500007
  -0.01812253  0.46113293  0.87504932
   0.00067819 -0.00394544  0.25104100
  -0.00220723  0.00010269 -0.00411588
   0.50035078  0.50375833  0.24795831
   0.49751699  0.49993655  0.00426555
   0.00090354 -0.00424583  0.75137314
  -0.00325277  0.00191740  0.49588636
   0.50304166  0.50385018  0.74720499
   0.49736174  0.50100396  0.50413092
   0.29358624  0.21277989  0.48417942
   0.79485186  0.28651338  0.23370097
   0.79307066  0.28704904  0.01604946
   0.71936935  0.78073643  0.01215747
   0.21977164  0.71779483  0.26247231
   0.72003668  0.78174673  0.23771836
   0.21876600  0.71921729  0.48802747
   0.29490475  0.21307771  0.26654342
   0.29342189  0.21277424  0.98419802
   0.79513567  0.28616363  0.73372738
   0.79317540  0.28720338  0.51614933
   0.71939481  0.78083110  0.51226749
   0.22045771  0.71741967  0.76242593
   0.72088267  0.78241099  0.73778903
   0.21914028  0.71910687  0.98804339
   0.29536588  0.21362246  0.76647216
SrIr2O4 prototype                       
           1
     5.211364    0.000590   -0.002181
     0.000623    5.367687   -0.012254
    -0.006460   -0.034825   15.621566
   Sr   Ir   O 
   4   8  16
Direct configuration=    15
   0.48285809  0.03472473  0.12492787
  -0.01810698  0.46434007  0.37514370
   0.48170451  0.03585438  0.62485149
  -0.01748195  0.46420181  0.87521307
   0.00103126 -0.00345506  0.24977816
  -0.00134805  0.00214785 -0.00420835
   0.50362140  0.50070468  0.24907878
   0.49762647  0.49795553  0.00445221
   0.00282135 -0.00322400  0.75107449
  -0.00296231  0.00381565  0.49575085
   0.50432627  0.50350416  0.74754025
   0.49723297  0.49869311  0.50496872
   0.29129675  0.21380564  0.48482579
   0.79301467  0.28538113  0.23430342
   0.79058617  0.28638274  0.01541955
   0.72022818  0.78075330  0.01173241
   0.22047166  0.71806295  0.26211203
   0.72094322  0.78151963  0.23797004
   0.21904450  0.71992852  0.48843150
   0.29313636  0.21439057  0.26586423
   0.29104993  0.21369472  0.98485247
   0.79378380  0.28461507  0.73429096
   0.79022015  0.28705045  0.51554073
   0.72037516  0.78097838  0.51184101
   0.22186505  0.71709610  0.76204539
   0.72211394  0.78244650  0.73799906
   0.21989906  0.71937768  0.98846184
   0.29391612  0.21525371  0.76573833
SrIr2O4 prototype                       
           1
     5.222505    0.000521   -0.002381
     0.000553    5.360910   -0.012977
    -0.007065   -0.036831   15.645234
   Sr   Ir   O 
   4   8  16
Direct configuration=    16
   0.48289385  0.03449374  0.12490762
  -0.01809745  0.46455928  0.37514992
   0.48171122  0.03565936  0.62484172
  -0.01743979  0.46440508  0.87522385
   0.00105443 -0.00342253  0.24969498
  -0.00129150  0.00228332 -0.00421445
   0.50383684  0.50050233  0.24915262
   0.49763371  0.49782430  0.00446452
   0.00294760 -0.00315631  0.75105482
  -0.00294321  0.00394140  0.49574192
   0.50441088  0.50348121  0.74756234
   0.49722457  0.49854000  0.50502391
   0.29114603  0.21387358  0.48486834
   0.79289375  0.28530611  0.23434310
   0.79042255  0.28633865  0.01537805
   0.72028470  0.78075443  0.01170442
   0.22051773  0.71808073  0.26208830
   0.72100293  0.78150457  0.23798662
   0.21906286  0.71997561  0.48845811
   0.29301988  0.21447758  0.26581947
   0.29089378  0.21375568  0.98489556
   0.79369483  0.28451248  0.73432808
   0.79002552  0.28704037  0.51550062
   0.72043968  0.78098815  0.51181293
   0.22195769  0.71707467  0.76202034
   0.72219502  0.78244884  0.73801290
   0.21994904  0.71939559  0.98848941
   0.29382060  0.21536181  0.76568998
SrIr2O4 prototype                       
           1
     5.224155    0.000511   -0.002411
     0.000543    5.359906   -0.013084
    -0.007155   -0.037128   15.648739
   Sr   Ir   O 
   4   8  16
Direct configuration=    17
   0.48369565  0.03161350  0.12474345
  -0.01750757  0.46721905  0.37518854
   0.48222373  0.03311445  0.62475549
  -0.01650045  0.46704353  0.87528917
   0.00094042 -0.00251369  0.24919701
  -0.00093508  0.00239533 -0.00422146
   0.50524479  0.49875484  0.25010365
   0.49802746  0.49833973  0.00445080
   0.00409289 -0.00240662  0.75107401
  -0.00261865  0.00349862  0.49586900
   0.50581506  0.50301742  0.74797457
   0.49714210  0.49882579  0.50487367
   0.28952803  0.21446983  0.48527519
   0.79177073  0.28443695  0.23470891
   0.78877513  0.28586237  0.01495323
   0.72067661  0.78064899  0.01142111
   0.22108754  0.71806713  0.26184846
   0.72134669  0.78110312  0.23808274
   0.21912844  0.72045164  0.48870414
   0.29168710  0.21513142  0.26532538
   0.28926193  0.21428788  0.98530153
   0.79277380  0.28349629  0.73468179
   0.78800431  0.28696671  0.51510338
   0.72083803  0.78093434  0.51153669
   0.22271173  0.71695496  0.76178134
   0.72290933  0.78234036  0.73807864
   0.22031414  0.71960408  0.98873763
   0.29283384  0.21634203  0.76516195
SrIr2O4 prototype                       
           1
     5.227456    0.000490   -0.002471
     0.000522    5.357898   -0.013298
    -0.007334   -0.037723   15.655751
   Sr   Ir   O 
   4   8  16
Direct configuration=    18
   0.48381415  0.03118635  0.12471915
  -0.01742038  0.46761350  0.37519427
   0.48229947  0.03273703  0.62474272
  -0.01636161  0.46743482  0.87529884
   0.00092356 -0.00237893  0.24912338
  -0.00088241  0.00241194 -0.00422250
   0.50545290  0.49849574  0.25024428
   0.49808566  0.49841617  0.00444878
   0.00426217 -0.00229544  0.75107685
  -0.00257068  0.00343296  0.49588779
   0.50602260  0.50294866  0.74803554
   0.49712991  0.49886816  0.50485146
   0.28928890  0.21455827  0.48533536
   0.79160475  0.28430806  0.23476301
   0.78853164  0.28579171  0.01489040
   0.72073452  0.78063334  0.01137922
   0.22117175  0.71806510  0.26181299
   0.72139750  0.78104359  0.23809695
   0.21913814  0.72052225  0.48874053
   0.29149012  0.21522835  0.26525231
   0.28902075  0.21436682  0.98536157
   0.79263768  0.28334561  0.73473409
   0.78770557  0.28695576  0.51504462
   0.72089690  0.78092635  0.51149584
   0.22282318  0.71693719  0.76174599
   0.72301490  0.78232427  0.73808837
   0.22036811  0.71963501  0.98877434
   0.29268800  0.21648736  0.76508387
SrIr2O4 prototype                       
           1
     5.232490    0.000891   -0.002685
     0.000934    5.358943   -0.013705
    -0.007985   -0.038911   15.658888
   Sr   Ir   O 
   4   8  16
Direct configuration=    19
   0.48405106  0.03033190  0.12467056
  -0.01724606  0.46840255  0.37520573
   0.48245091  0.03198205  0.62471718
  -0.01608402  0.46821754  0.87531821
   0.00088985 -0.00210938  0.24897614
  -0.00077708  0.00244517 -0.00422457
   0.50586898  0.49797746  0.25052549
   0.49820202  0.49856908  0.00444473
   0.00460061 -0.00207303  0.75108254
  -0.00247477  0.00330163  0.49592536
   0.50643755  0.50281113  0.74815744
   0.49710553  0.49895292  0.50480704
   0.28881080  0.21473520  0.48545568
   0.79127291  0.28405026  0.23487116
   0.78804481  0.28565036  0.01476476
   0.72085032  0.78060203  0.01129544
   0.22134013  0.71806104  0.26174206
   0.72149908  0.78092450  0.23812537
   0.21915753  0.72066349  0.48881330
   0.29109626  0.21542225  0.26510621
   0.28853855  0.21452475  0.98548162
   0.79236553  0.28304419  0.73483866
   0.78710828  0.28693384  0.51492714
   0.72101460  0.78091036  0.51141415
   0.22304599  0.71690165  0.76167531
   0.72322598  0.78229210  0.73810781
   0.22047601  0.71969689  0.98884775
   0.29239639  0.21677808  0.76492774
SrIr2O4 prototype                       
           1
     5.238889    0.001400   -0.002959
     0.001456    5.360270   -0.014221
    -0.008814   -0.040421   15.662876
   Sr   Ir   O 
   4   8  16
Direct configuration=    20
   0.48443243  0.02873187  0.12469366
  -0.01670455  0.46978704  0.37522699
   0.48299340  0.03040071  0.62480766
  -0.01553331  0.46959314  0.87534338
   0.00177459 -0.00281276  0.24890965
  -0.00049888  0.00136315 -0.00407793
   0.50490312  0.49850168  0.25032739
   0.49863171  0.49980602  0.00435492
   0.00484886 -0.00118905  0.75086678
  -0.00246123  0.00223478  0.49623520
   0.50683305  0.50330889  0.74820105
   0.49715145  0.50054448  0.50430292
   0.28812457  0.21501415  0.48567530
   0.79095110  0.28350225  0.23505564
   0.78748615  0.28528113  0.01463029
   0.72090623  0.78047110  0.01122634
   0.22175112  0.71783484  0.26168747
   0.72139294  0.78046352  0.23819369
   0.21914726  0.72081493  0.48896833
   0.29034186  0.21541812  0.26492547
   0.28803524  0.21490047  0.98569661
   0.79199269  0.28259933  0.73504426
   0.78650072  0.28662958  0.51480909
   0.72089321  0.78070149  0.51135711
   0.22327549  0.71692085  0.76165017
   0.72356017  0.78221154  0.73815395
   0.22048939  0.71982077  0.98899317
   0.29204897  0.21714600  0.76474144
SrIr2O4 prototype                       
           1
     5.251688    0.002418   -0.003505
     0.002502    5.362925   -0.015255
    -0.010471   -0.043441   15.670852
   Sr   Ir   O 
   4   8  16
Direct configuration=    21
   0.48491687  0.02669850  0.12472298
  -0.01601705  0.47154644  0.37525407
   0.48368245  0.02839109  0.62492260
  -0.01483413  0.47134123  0.87537542
   0.00289813 -0.00370674  0.24882514
  -0.00014547 -0.00001190 -0.00389160
   0.50367656  0.49916791  0.25007563
   0.49917720  0.50137788  0.00424083
   0.00516399 -0.00006576  0.75059263
  -0.00244389  0.00087910  0.49662890
   0.50733523  0.50394143  0.74825650
   0.49720952  0.50256692  0.50366235
   0.28725318  0.21536876  0.48595439
   0.79054253  0.28280591  0.23529004
   0.78677676  0.28481194  0.01445939
   0.72097722  0.78030469  0.01113852
   0.22227303  0.71754733  0.26161810
   0.72125822  0.77987772  0.23828049
   0.21913422  0.72100743  0.48916535
   0.28938385  0.21541290  0.26469578
   0.28739611  0.21537805  0.98596982
   0.79151932  0.28203408  0.73530551
   0.78572923  0.28624294  0.51465905
   0.72073907  0.78043604  0.51128461
   0.22356692  0.71694522  0.76161821
   0.72398455  0.78210914  0.73821260
   0.22050640  0.71997823  0.98917799
   0.29160772  0.21761353  0.76450469
SrIr2O4 prototype                       
           1
     5.246171    0.001979   -0.003269
     0.002051    5.361781   -0.014810
    -0.009757   -0.042139   15.667414
   Sr   Ir   O 
   4   8  16
Direct configuration=    22
   0.48588499  0.02263269  0.12478149
  -0.01464408  0.47506424  0.37530834
   0.48505930  0.02437278  0.62515231
  -0.01343782  0.47483643  0.87543963
   0.00514261 -0.00549450  0.24865616
   0.00056082 -0.00276127 -0.00351912
   0.50122621  0.50050012  0.24957225
   0.50026652  0.50452067  0.00401284
   0.00579315  0.00218005  0.75004455
  -0.00240884 -0.00183137  0.49741602
   0.50833826  0.50520614  0.74836742
   0.49732491  0.50661041  0.50238165
   0.28551254  0.21607814  0.48651244
   0.78972662  0.28141379  0.23575868
   0.78535974  0.28387381  0.01411762
   0.72111903  0.77997189  0.01096292
   0.22331561  0.71697232  0.26147939
   0.72098925  0.77870648  0.23845402
   0.21910820  0.72139243  0.48955931
   0.28747010  0.21540250  0.26423648
   0.28611940  0.21633324  0.98651611
   0.79057395  0.28090411  0.73582783
   0.78418817  0.28546991  0.51435899
   0.72043120  0.77990528  0.51113962
   0.22414904  0.71699387  0.76155433
   0.72483230  0.78190435  0.73832987
   0.22054041  0.72029318  0.98954754
   0.29072615  0.21854831  0.76403133
SrIr2O4 prototype                       
           1
     5.257118    0.001602   -0.002928
     0.001669    5.364704   -0.013233
    -0.008752   -0.037539   15.673307
   Sr   Ir   O 
   4   8  16
Direct configuration=    23
   0.48546838  0.02438432  0.12475639
  -0.01523412  0.47354886  0.37528484
   0.48446692  0.02610394  0.62505344
  -0.01403790  0.47333079  0.87541185
   0.00417743 -0.00472410  0.24872897
   0.00025686 -0.00157687 -0.00367951
   0.50227996  0.49992612  0.24978911
   0.49979845  0.50316689  0.00411095
   0.00552290  0.00121273  0.75028059
  -0.00242425 -0.00066388  0.49707701
   0.50790709  0.50466135  0.74831959
   0.49727582  0.50486878  0.50293326
   0.28626094  0.21577226  0.48627204
   0.79007725  0.28201334  0.23555684
   0.78596898  0.28427792  0.01426490
   0.72105805  0.78011532  0.01103857
   0.22286730  0.71722016  0.26153915
   0.72110477  0.77921099  0.23837930
   0.21911937  0.72122647  0.48938958
   0.28829300  0.21540693  0.26443437
   0.28666835  0.21592151  0.98628077
   0.79098026  0.28139070  0.73560286
   0.78485075  0.28580288  0.51448830
   0.72056354  0.78013394  0.51120210
   0.22389876  0.71697297  0.76158184
   0.72446776  0.78199262  0.73827934
   0.22052576  0.72015742  0.98938833
   0.29110534  0.21814565  0.76423524
SrIr2O4 prototype                       
           1
     5.257811    0.001578   -0.002906
     0.001645    5.364889   -0.013133
    -0.008689   -0.037247   15.673680
   Sr   Ir   O 
   4   8  16
Direct configuration=    24
   0.48637130  0.02205922  0.12476113
  -0.01424463  0.47543204  0.37529480
   0.48549272  0.02415272  0.62510815