 running on   96 total cores
 distrk:  each k-point on   96 cores,    1 groups
 distr:  one band on   12 cores,    8 groups
 using from now: INCAR     
 vasp.5.4.1 24Jun15 (build Nov 16 2016 17:59:42) complex                        
  
 POSCAR found type information on POSCAR  Sr Ir O 
 POSCAR found :  3 types and      28 ions
 scaLAPACK will be used
 LDA part: xc-table for Pade appr. of Perdew
 POSCAR, INCAR and KPOINTS ok, starting setup
 WARNING: small aliasing (wrap around) errors must be expected
 FFT: planning ...
 WAVECAR not read
 entering main loop
       N       E                     dE             d eps       ncg     rms          rms(c)
DAV:   1     0.179534163404E+04    0.17953E+04   -0.86378E+04 72000   0.118E+03
DAV:   2     0.349801880211E+02   -0.17604E+04   -0.16525E+04 74040   0.368E+02
DAV:   3    -0.202358823622E+03   -0.23734E+03   -0.22687E+03 95792   0.135E+02
DAV:   4    -0.214767627274E+03   -0.12409E+02   -0.12271E+02 95696   0.318E+01
DAV:   5    -0.215538146602E+03   -0.77052E+00   -0.76922E+00126648   0.578E+00    0.121E+02
RMM:   6    -0.189771998553E+03    0.25766E+02   -0.23461E+02 79016   0.384E+01    0.786E+01
RMM:   7    -0.211489345565E+03   -0.21717E+02   -0.70862E+01 75346   0.217E+01    0.813E+01
RMM:   8    -0.189482830924E+03    0.22007E+02   -0.24759E+01 75544   0.136E+01    0.407E+01
RMM:   9    -0.196853016609E+03   -0.73702E+01   -0.55586E+01 77795   0.185E+01    0.709E+01
RMM:  10    -0.181327775332E+03    0.15525E+02   -0.48743E+00 79932   0.558E+00    0.386E+01
RMM:  11    -0.179590276114E+03    0.17375E+01   -0.26290E+00 80692   0.428E+00    0.270E+01
RMM:  12    -0.176539375625E+03    0.30509E+01   -0.21590E+00 79431   0.373E+00    0.173E+01
RMM:  13    -0.176106580031E+03    0.43280E+00   -0.30895E-01 87110   0.131E+00    0.150E+01
RMM:  14    -0.176083152193E+03    0.23428E-01   -0.78085E-02 88977   0.628E-01    0.134E+01
RMM:  15    -0.176406826156E+03   -0.32367E+00   -0.50526E-01 78172   0.171E+00    0.929E+00
RMM:  16    -0.176303015459E+03    0.10381E+00   -0.52538E-01 78358   0.167E+00    0.505E+00
RMM:  17    -0.176348221972E+03   -0.45207E-01   -0.16457E-01 83085   0.956E-01    0.458E+00
RMM:  18    -0.176330800334E+03    0.17422E-01   -0.41104E-02 84624   0.446E-01    0.538E+00
RMM:  19    -0.176313488559E+03    0.17312E-01   -0.19695E-02 84766   0.327E-01    0.318E+00
RMM:  20    -0.176310222871E+03    0.32657E-02   -0.15040E-02 81605   0.291E-01    0.209E+00
RMM:  21    -0.176305282056E+03    0.49408E-02   -0.77348E-03 81054   0.217E-01    0.103E+00
RMM:  22    -0.176304941899E+03    0.34016E-03   -0.28744E-03 89960   0.119E-01    0.440E-01
RMM:  23    -0.176306880093E+03   -0.19382E-02   -0.21948E-03 82414   0.105E-01    0.644E-01
RMM:  24    -0.176305894080E+03    0.98601E-03   -0.74947E-04 82365   0.662E-02    0.432E-01
RMM:  25    -0.176305934546E+03   -0.40466E-04   -0.60490E-04 83732   0.563E-02    0.167E-01
RMM:  26    -0.176306003405E+03   -0.68859E-04   -0.26165E-04 81700   0.381E-02    0.833E-02
RMM:  27    -0.176306000793E+03    0.26123E-05   -0.78850E-05 77113   0.199E-02
   1 F= -.17630600E+03 E0= -.17630600E+03  d E =0.000000E+00  mag=     0.9699
