SrIr2O4 prototype                       
           1
     5.514220   -0.008953   -0.003349
    -0.009978    5.799764   -0.004499
    -0.009693   -0.011546   14.872309
   Sr   Ir   O 
   4   8  16
Direct configuration=     1
   0.49271869  0.02455140  0.12474852
   0.49636286  0.03352898  0.37472126
   0.48281268  0.96892003  0.87463129
   0.48712728  0.97865820  0.62390176
   0.97483754  0.98748175  0.00002944
   0.45504955  0.49721931  0.99745539
   0.98322269  0.95331240  0.25033258
   0.57542989  0.53741911  0.24981839
   0.47529043  0.51217695  0.49996947
   0.97489979  0.01247982  0.50001617
   0.57511553  0.46262283  0.74993435
   0.97018023  0.03723735  0.75149961
   0.31091508  0.79135209  0.49094476
   0.30025493  0.78250429  0.00851353
   0.96843652  0.99173557  0.12535332
   0.52054902  0.47018595  0.37325077
   0.51335630  0.46633453  0.12569790
   0.97341127  0.00217560  0.37505173
   0.34571258  0.79606262  0.25091032
   0.90040398  0.61535160  0.25018788
   0.31326689  0.22540993  0.50663649
   0.30556508  0.20874393  0.99244316
   0.53405826  0.53355608  0.62623865
   0.96208484  0.98925121  0.87516934
   0.96586255  0.01169048  0.62517721
   0.50966461  0.53133163  0.87223948
   0.89727063  0.37306330  0.75463454
   0.34542827  0.20564305  0.75049270
