Automatically generated mesh
     132
Reciprocal lattice
    0.00000000000000    0.00000000000000    0.00000000000000             1
    0.12500000000000    0.00000000000000    0.00000000000000             2
    0.25000000000000    0.00000000000000    0.00000000000000             2
    0.37500000000000    0.00000000000000    0.00000000000000             2
    0.50000000000000    0.00000000000000    0.00000000000000             1
    0.00000000000000    0.12500000000000    0.00000000000000             2
    0.12500000000000    0.12500000000000    0.00000000000000             2
    0.25000000000000    0.12500000000000    0.00000000000000             2
    0.37500000000000    0.12500000000000    0.00000000000000             2
    0.50000000000000    0.12500000000000    0.00000000000000             2
   -0.37500000000000    0.12500000000000    0.00000000000000             2
   -0.25000000000000    0.12500000000000    0.00000000000000             2
   -0.12500000000000    0.12500000000000    0.00000000000000             2
    0.00000000000000    0.25000000000000    0.00000000000000             2
    0.12500000000000    0.25000000000000    0.00000000000000             2
    0.25000000000000    0.25000000000000    0.00000000000000             2
    0.37500000000000    0.25000000000000    0.00000000000000             2
    0.50000000000000    0.25000000000000    0.00000000000000             2
   -0.37500000000000    0.25000000000000    0.00000000000000             2
   -0.25000000000000    0.25000000000000    0.00000000000000             2
   -0.12500000000000    0.25000000000000    0.00000000000000             2
    0.00000000000000    0.37500000000000    0.00000000000000             2
    0.12500000000000    0.37500000000000    0.00000000000000             2
    0.25000000000000    0.37500000000000    0.00000000000000             2
    0.37500000000000    0.37500000000000    0.00000000000000             2
    0.50000000000000    0.37500000000000    0.00000000000000             2
   -0.37500000000000    0.37500000000000    0.00000000000000             2
   -0.25000000000000    0.37500000000000    0.00000000000000             2
   -0.12500000000000    0.37500000000000    0.00000000000000             2
    0.00000000000000    0.50000000000000    0.00000000000000             1
    0.12500000000000    0.50000000000000    0.00000000000000             2
    0.25000000000000    0.50000000000000    0.00000000000000             2
    0.37500000000000    0.50000000000000    0.00000000000000             2
    0.50000000000000    0.50000000000000    0.00000000000000             1
    0.00000000000000    0.00000000000000    0.25000000000000             2
    0.12500000000000    0.00000000000000    0.25000000000000             2
    0.25000000000000    0.00000000000000    0.25000000000000             2
    0.37500000000000    0.00000000000000    0.25000000000000             2
    0.50000000000000    0.00000000000000    0.25000000000000             2
   -0.37500000000000    0.00000000000000    0.25000000000000             2
   -0.25000000000000    0.00000000000000    0.25000000000000             2
   -0.12500000000000    0.00000000000000    0.25000000000000             2
    0.00000000000000    0.12500000000000    0.25000000000000             2
    0.12500000000000    0.12500000000000    0.25000000000000             2
    0.25000000000000    0.12500000000000    0.25000000000000             2
    0.37500000000000    0.12500000000000    0.25000000000000             2
    0.50000000000000    0.12500000000000    0.25000000000000             2
   -0.37500000000000    0.12500000000000    0.25000000000000             2
   -0.25000000000000    0.12500000000000    0.25000000000000             2
   -0.12500000000000    0.12500000000000    0.25000000000000             2
    0.00000000000000    0.25000000000000    0.25000000000000             2
    0.12500000000000    0.25000000000000    0.25000000000000             2
    0.25000000000000    0.25000000000000    0.25000000000000             2
    0.37500000000000    0.25000000000000    0.25000000000000             2
    0.50000000000000    0.25000000000000    0.25000000000000             2
   -0.37500000000000    0.25000000000000    0.25000000000000             2
   -0.25000000000000    0.25000000000000    0.25000000000000             2
   -0.12500000000000    0.25000000000000    0.25000000000000             2
    0.00000000000000    0.37500000000000    0.25000000000000             2
    0.12500000000000    0.37500000000000    0.25000000000000             2
    0.25000000000000    0.37500000000000    0.25000000000000             2
    0.37500000000000    0.37500000000000    0.25000000000000             2
    0.50000000000000    0.37500000000000    0.25000000000000             2
   -0.37500000000000    0.37500000000000    0.25000000000000             2
   -0.25000000000000    0.37500000000000    0.25000000000000             2
   -0.12500000000000    0.37500000000000    0.25000000000000             2
    0.00000000000000    0.50000000000000    0.25000000000000             2
    0.12500000000000    0.50000000000000    0.25000000000000             2
    0.25000000000000    0.50000000000000    0.25000000000000             2
    0.37500000000000    0.50000000000000    0.25000000000000             2
    0.50000000000000    0.50000000000000    0.25000000000000             2
   -0.37500000000000    0.50000000000000    0.25000000000000             2
   -0.25000000000000    0.50000000000000    0.25000000000000             2
   -0.12500000000000    0.50000000000000    0.25000000000000             2
    0.00000000000000   -0.37500000000000    0.25000000000000             2
    0.12500000000000   -0.37500000000000    0.25000000000000             2
    0.25000000000000   -0.37500000000000    0.25000000000000             2
    0.37500000000000   -0.37500000000000    0.25000000000000             2
    0.50000000000000   -0.37500000000000    0.25000000000000             2
   -0.37500000000000   -0.37500000000000    0.25000000000000             2
   -0.25000000000000   -0.37500000000000    0.25000000000000             2
   -0.12500000000000   -0.37500000000000    0.25000000000000             2
    0.00000000000000   -0.25000000000000    0.25000000000000             2
    0.12500000000000   -0.25000000000000    0.25000000000000             2
    0.25000000000000   -0.25000000000000    0.25000000000000             2
    0.37500000000000   -0.25000000000000    0.25000000000000             2
    0.50000000000000   -0.25000000000000    0.25000000000000             2
   -0.37500000000000   -0.25000000000000    0.25000000000000             2
   -0.25000000000000   -0.25000000000000    0.25000000000000             2
   -0.12500000000000   -0.25000000000000    0.25000000000000             2
    0.00000000000000   -0.12500000000000    0.25000000000000             2
    0.12500000000000   -0.12500000000000    0.25000000000000             2
    0.25000000000000   -0.12500000000000    0.25000000000000             2
    0.37500000000000   -0.12500000000000    0.25000000000000             2
    0.50000000000000   -0.12500000000000    0.25000000000000             2
   -0.37500000000000   -0.12500000000000    0.25000000000000             2
   -0.25000000000000   -0.12500000000000    0.25000000000000             2
   -0.12500000000000   -0.12500000000000    0.25000000000000             2
    0.00000000000000    0.00000000000000    0.50000000000000             1
    0.12500000000000    0.00000000000000    0.50000000000000             2
    0.25000000000000    0.00000000000000    0.50000000000000             2
    0.37500000000000    0.00000000000000    0.50000000000000             2
    0.50000000000000    0.00000000000000    0.50000000000000             1
    0.00000000000000    0.12500000000000    0.50000000000000             2
    0.12500000000000    0.12500000000000    0.50000000000000             2
    0.25000000000000    0.12500000000000    0.50000000000000             2
    0.37500000000000    0.12500000000000    0.50000000000000             2
    0.50000000000000    0.12500000000000    0.50000000000000             2
   -0.37500000000000    0.12500000000000    0.50000000000000             2
   -0.25000000000000    0.12500000000000    0.50000000000000             2
   -0.12500000000000    0.12500000000000    0.50000000000000             2
    0.00000000000000    0.25000000000000    0.50000000000000             2
    0.12500000000000    0.25000000000000    0.50000000000000             2
    0.25000000000000    0.25000000000000    0.50000000000000             2
    0.37500000000000    0.25000000000000    0.50000000000000             2
    0.50000000000000    0.25000000000000    0.50000000000000             2
   -0.37500000000000    0.25000000000000    0.50000000000000             2
   -0.25000000000000    0.25000000000000    0.50000000000000             2
   -0.12500000000000    0.25000000000000    0.50000000000000             2
    0.00000000000000    0.37500000000000    0.50000000000000             2
    0.12500000000000    0.37500000000000    0.50000000000000             2
    0.25000000000000    0.37500000000000    0.50000000000000             2
    0.37500000000000    0.37500000000000    0.50000000000000             2
    0.50000000000000    0.37500000000000    0.50000000000000             2
   -0.37500000000000    0.37500000000000    0.50000000000000             2
   -0.25000000000000    0.37500000000000    0.50000000000000             2
   -0.12500000000000    0.37500000000000    0.50000000000000             2
    0.00000000000000    0.50000000000000    0.50000000000000             1
    0.12500000000000    0.50000000000000    0.50000000000000             2
    0.25000000000000    0.50000000000000    0.50000000000000             2
    0.37500000000000    0.50000000000000    0.50000000000000             2
    0.50000000000000    0.50000000000000    0.50000000000000             1
Tetrahedra
       768    0.00065104166667
         2         1         2         7        35
         2         1         6         7        35
         2         6         7        35        43
         2         2         7        35        36
         2         7        35        36        44
         2         7        35        43        44
         2         2         3         8        36
         2         2         7         8        36
         2         7         8        36        44
         2         3         8        36        37
         2         8        36        37        45
         2         8        36        44        45
         2         3         4         9        37
         2         3         8         9        37
         2         8         9        37        45
         2         4         9        37        38
         2         9        37        38        46
         2         9        37        45        46
         2         4         5        10        38
         2         4         9        10        38
         2         9        10        38        46
         2         5        10        38        39
         2        10        38        39        47
         2        10        38        46        47
         2         4         5        11        39
         2         5        10        11        39
         2        10        11        39        47
         2         4        11        39        40
         2        11        39        40        48
         2        11        39        47        48
         2         3         4        12        40
         2         4        11        12        40
         2        11        12        40        48
         2         3        12        40        41
         2        12        40        41        49
         2        12        40        48        49
         2         2         3        13        41
         2         3        12        13        41
         2        12        13        41        49
         2         2        13        41        42
         2        13        41        42        50
         2        13        41        49        50
         2         1         2         6        42
         2         2         6        13        42
         2         6        13        42        50
         2         1         6        35        42
         2         6        35        42        43
         2         6        42        43        50
         2         6         7        15        43
         2         6        14        15        43
         2        14        15        43        51
         2         7        15        43        44
         2        15        43        44        52
         2        15        43        51        52
         2         7         8        16        44
         2         7        15        16        44
         2        15        16        44        52
         2         8        16        44        45
         2        16        44        45        53
         2        16        44        52        53
         2         8         9        17        45
         2         8        16        17        45
         2        16        17        45        53
         2         9        17        45        46
         2        17        45        46        54
         2        17        45        53        54
         2         9        10        18        46
         2         9        17        18        46
         2        17        18        46        54
         2        10        18        46        47
         2        18        46        47        55
         2        18        46        54        55
         2        10        11        19        47
         2        10        18        19        47
         2        18        19        47        55
         2        11        19        47        48
         2        19        47        48        56
         2        19        47        55        56
         2        11        12        20        48
         2        11        19        20        48
         2        19        20        48        56
         2        12        20        48        49
         2        20        48        49        57
         2        20        48        56        57
         2        12        13        21        49
         2        12        20        21        49
         2        20        21        49        57
         2        13        21        49        50
         2        21        49        50        58
         2        21        49        57        58
         2         6        13        14        50
         2        13        14        21        50
         2        14        21        50        58
         2         6        14        43        50
         2        14        43        50        51
         2        14        50        51        58
         2        14        15        23        51
         2        14        22        23        51
         2        22        23        51        59
         2        15        23        51        52
         2        23        51        52        60
         2        23        51        59        60
         2        15        16        24        52
         2        15        23        24        52
         2        23        24        52        60
         2        16        24        52        53
         2        24        52        53        61
         2        24        52        60        61
         2        16        17        25        53
         2        16        24        25        53
         2        24        25        53        61
         2        17        25        53        54
         2        25        53        54        62
         2        25        53        61        62
         2        17        18        26        54
         2        17        25        26        54
         2        25        26        54        62
         2        18        26        54        55
         2        26        54        55        63
         2        26        54        62        63
         2        18        19        27        55
         2        18        26        27        55
         2        26        27        55        63
         2        19        27        55        56
         2        27        55        56        64
         2        27        55        63        64
         2        19        20        28        56
         2        19        27        28        56
         2        27        28        56        64
         2        20        28        56        57
         2        28        56        57        65
         2        28        56        64        65
         2        20        21        29        57
         2        20        28        29        57
         2        28        29        57        65
         2        21        29        57        58
         2        29        57        58        66
         2        29        57        65        66
         2        14        21        22        58
         2        21        22        29        58
         2        22        29        58        66
         2        14        22        51        58
         2        22        51        58        59
         2        22        58        59        66
         2        22        23        31        59
         2        22        30        31        59
         2        30        31        59        67
         2        23        31        59        60
         2        31        59        60        68
         2        31        59        67        68
         2        23        24        32        60
         2        23        31        32        60
         2        31        32        60        68
         2        24        32        60        61
         2        32        60        61        69
         2        32        60        68        69
         2        24        25        33        61
         2        24        32        33        61
         2        32        33        61        69
         2        25        33        61        62
         2        33        61        62        70
         2        33        61        69        70
         2        25        26        34        62
         2        25        33        34        62
         2        33        34        62        70
         2        26        34        62        63
         2        34        62        63        71
         2        34        62        70        71
         2        26        27        33        63
         2        26        33        34        63
         2        33        34        63        71
         2        27        33        63        64
         2        33        63        64        72
         2        33        63        71        72
         2        27        28        32        64
         2        27        32        33        64
         2        32        33        64        72
         2        28        32        64        65
         2        32        64        65        73
         2        32        64        72        73
         2        28        29        31        65
         2        28        31        32        65
         2        31        32        65        73
         2        29        31        65        66
         2        31        65        66        74
         2        31        65        73        74
         2        22        29        30        66
         2        29        30        31        66
         2        30        31        66        74
         2        22        30        59        66
         2        30        59        66        67
         2        30        66        67        74
         2        29        30        31        67
         2        22        29        30        67
         2        22        29        67        75
         2        29        31        67        68
         2        29        67        68        76
         2        29        67        75        76
         2        28        31        32        68
         2        28        29        31        68
         2        28        29        68        76
         2        28        32        68        69
         2        28        68        69        77
         2        28        68        76        77
         2        27        32        33        69
         2        27        28        32        69
         2        27        28        69        77
         2        27        33        69        70
         2        27        69        70        78
         2        27        69        77        78
         2        26        33        34        70
         2        26        27        33        70
         2        26        27        70        78
         2        26        34        70        71
         2        26        70        71        79
         2        26        70        78        79
         2        25        33        34        71
         2        25        26        34        71
         2        25        26        71        79
         2        25        33        71        72
         2        25        71        72        80
         2        25        71        79        80
         2        24        32        33        72
         2        24        25        33        72
         2        24        25        72        80
         2        24        32        72        73
         2        24        72        73        81
         2        24        72        80        81
         2        23        31        32        73
         2        23        24        32        73
         2        23        24        73        81
         2        23        31        73        74
         2        23        73        74        82
         2        23        73        81        82
         2        22        30        31        74
         2        22        23        31        74
         2        22        23        74        82
         2        22        30        67        74
         2        22        67        74        75
         2        22        74        75        82
         2        21        22        29        75
         2        14        21        22        75
         2        14        21        75        83
         2        21        29        75        76
         2        21        75        76        84
         2        21        75        83        84
         2        20        28        29        76
         2        20        21        29        76
         2        20        21        76        84
         2        20        28        76        77
         2        20        76        77        85
         2        20        76        84        85
         2        19        27        28        77
         2        19        20        28        77
         2        19        20        77        85
         2        19        27        77        78
         2        19        77        78        86
         2        19        77        85        86
         2        18        26        27        78
         2        18        19        27        78
         2        18        19        78        86
         2        18        26        78        79
         2        18        78        79        87
         2        18        78        86        87
         2        17        25        26        79
         2        17        18        26        79
         2        17        18        79        87
         2        17        25        79        80
         2        17        79        80        88
         2        17        79        87        88
         2        16        24        25        80
         2        16        17        25        80
         2        16        17        80        88
         2        16        24        80        81
         2        16        80        81        89
         2        16        80        88        89
         2        15        23        24        81
         2        15        16        24        81
         2        15        16        81        89
         2        15        23        81        82
         2        15        81        82        90
         2        15        81        89        90
         2        14        22        23        82
         2        14        15        23        82
         2        14        15        82        90
         2        14        22        75        82
         2        14        75        82        83
         2        14        82        83        90
         2        13        14        21        83
         2         6        13        14        83
         2         6        13        83        91
         2        13        21        83        84
         2        13        83        84        92
         2        13        83        91        92
         2        12        20        21        84
         2        12        13        21        84
         2        12        13        84        92
         2        12        20        84        85
         2        12        84        85        93
         2        12        84        92        93
         2        11        19        20        85
         2        11        12        20        85
         2        11        12        85        93
         2        11        19        85        86
         2        11        85        86        94
         2        11        85        93        94
         2        10        18        19        86
         2        10        11        19        86
         2        10        11        86        94
         2        10        18        86        87
         2        10        86        87        95
         2        10        86        94        95
         2         9        17        18        87
         2         9        10        18        87
         2         9        10        87        95
         2         9        17        87        88
         2         9        87        88        96
         2         9        87        95        96
         2         8        16        17        88
         2         8         9        17        88
         2         8         9        88        96
         2         8        16        88        89
         2         8        88        89        97
         2         8        88        96        97
         2         7        15        16        89
         2         7         8        16        89
         2         7         8        89        97
         2         7        15        89        90
         2         7        89        90        98
         2         7        89        97        98
         2         6        14        15        90
         2         6         7        15        90
         2         6         7        90        98
         2         6        14        83        90
         2         6        83        90        91
         2         6        90        91        98
         2         2         6        13        91
         2         1         2         6        91
         2         1         2        35        91
         2         2        13        91        92
         2         2        36        91        92
         2         2        35        36        91
         2         3        12        13        92
         2         2         3        13        92
         2         2         3        36        92
         2         3        12        92        93
         2         3        37        92        93
         2         3        36        37        92
         2         4        11        12        93
         2         3         4        12        93
         2         3         4        37        93
         2         4        11        93        94
         2         4        38        93        94
         2         4        37        38        93
         2         5        10        11        94
         2         4         5        11        94
         2         4         5        38        94
         2         5        10        94        95
         2         5        39        94        95
         2         5        38        39        94
         2         4         9        10        95
         2         4         5        10        95
         2         4         5        39        95
         2         4         9        95        96
         2         4        40        95        96
         2         4        39        40        95
         2         3         8         9        96
         2         3         4         9        96
         2         3         4        40        96
         2         3         8        96        97
         2         3        41        96        97
         2         3        40        41        96
         2         2         7         8        97
         2         2         3         8        97
         2         2         3        41        97
         2         2         7        97        98
         2         2        42        97        98
         2         2        41        42        97
         2         1         6         7        98
         2         1         2         7        98
         2         1         2        42        98
         2         1         6        91        98
         2         1        35        91        98
         2         1        35        42        98
         2        35        36        44        99
         2        35        43        44        99
         2        43        44        99       104
         2        36        44        99       100
         2        44        99       100       105
         2        44        99       104       105
         2        36        37        45       100
         2        36        44        45       100