       N       E                     dE             d eps       ncg     rms          rms(c)
DAV:   1     0.182614917427E+04    0.18261E+04   -0.87095E+04 71968   0.119E+03
DAV:   2     0.243269884739E+02   -0.18018E+04   -0.16897E+04 74008   0.374E+02
DAV:   3    -0.212585720587E+03   -0.23691E+03   -0.22823E+03100224   0.137E+02
DAV:   4    -0.223992094617E+03   -0.11406E+02   -0.11278E+02100232   0.301E+01
DAV:   5    -0.224686609934E+03   -0.69452E+00   -0.69354E+00123736   0.548E+00    0.129E+02
RMM:   6    -0.211985577573E+03    0.12701E+02   -0.25603E+02 82750   0.394E+01    0.122E+02
RMM:   7    -0.196125492260E+03    0.15860E+02   -0.33903E+01 81128   0.168E+01    0.622E+01
RMM:   8    -0.190109652090E+03    0.60158E+01   -0.44686E+01 78098   0.147E+01    0.254E+01
RMM:   9    -0.192697523180E+03   -0.25879E+01   -0.14856E+01 82591   0.979E+00    0.463E+01
RMM:  10    -0.185197418951E+03    0.75001E+01   -0.21738E+00 80586   0.451E+00    0.255E+01
RMM:  11    -0.185655597738E+03   -0.45818E+00   -0.11737E+00 83859   0.292E+00    0.307E+01
RMM:  12    -0.184667155092E+03    0.98844E+00   -0.43891E-01 86305   0.176E+00    0.205E+01
RMM:  13    -0.184792541765E+03   -0.12539E+00   -0.10189E-01 91007   0.765E-01    0.192E+01
RMM:  14    -0.185197934105E+03   -0.40539E+00   -0.10971E+00 78668   0.248E+00    0.940E+00
RMM:  15    -0.185118544019E+03    0.79390E-01   -0.27979E-01 82864   0.128E+00    0.661E+00
RMM:  16    -0.185045704888E+03    0.72839E-01   -0.50228E-02 93006   0.500E-01    0.505E+00
RMM:  17    -0.185031861940E+03    0.13843E-01   -0.15211E-02 87922   0.300E-01    0.428E+00
RMM:  18    -0.185016600193E+03    0.15262E-01   -0.11621E-02 84969   0.265E-01    0.290E+00
RMM:  19    -0.185000952953E+03    0.15647E-01   -0.55658E-03 86983   0.187E-01    0.232E+00
RMM:  20    -0.184993653846E+03    0.72991E-02   -0.45987E-03 86501   0.163E-01    0.163E+00
RMM:  21    -0.184994413371E+03   -0.75953E-03   -0.33308E-03 86308   0.139E-01    0.965E-01
RMM:  22    -0.184992328491E+03    0.20849E-02   -0.25972E-03 89549   0.119E-01    0.542E-01
RMM:  23    -0.184994538895E+03   -0.22104E-02   -0.12496E-03 88248   0.819E-02    0.227E-01
RMM:  24    -0.184994810832E+03   -0.27194E-03   -0.26632E-04 92441   0.401E-02    0.209E-01
RMM:  25    -0.184995382398E+03   -0.57157E-03   -0.26269E-04 85139   0.383E-02    0.215E-01
RMM:  26    -0.184996967722E+03   -0.15853E-02   -0.10606E-04 79479   0.249E-02    0.275E-01
RMM:  27    -0.184996702151E+03    0.26557E-03   -0.98635E-06 53804   0.121E-02    0.249E-01
RMM:  28    -0.184997008131E+03   -0.30598E-03   -0.67715E-05 73044   0.213E-02    0.354E-01
RMM:  29    -0.184995905882E+03    0.11022E-02   -0.11239E-04 71153   0.271E-02    0.310E-01
RMM:  30    -0.184995648838E+03    0.25704E-03   -0.73275E-05 69523   0.214E-02    0.323E-01
RMM:  31    -0.184995314531E+03    0.33431E-03   -0.87273E-05 71424   0.230E-02    0.334E-01
RMM:  32    -0.184995291436E+03    0.23095E-04   -0.77792E-06 49223   0.102E-02    0.327E-01
RMM:  33    -0.184995177731E+03    0.11371E-03   -0.72497E-06 47843   0.794E-03    0.348E-01
RMM:  34    -0.184995658633E+03   -0.48090E-03   -0.63418E-05 67611   0.230E-02    0.326E-01
RMM:  35    -0.184996395818E+03   -0.73719E-03   -0.61191E-05 66656   0.204E-02    0.264E-01
RMM:  36    -0.184996606467E+03   -0.21065E-03   -0.67688E-06 46308   0.967E-03    0.280E-01
RMM:  37    -0.184997049129E+03   -0.44266E-03   -0.14645E-05 48330   0.947E-03    0.267E-01
RMM:  38    -0.184996294065E+03    0.75506E-03   -0.27476E-05 55784   0.154E-02    0.297E-01
RMM:  39    -0.184994985551E+03    0.13085E-02   -0.13242E-04 67995   0.294E-02    0.266E-01
RMM:  40    -0.184994523616E+03    0.46193E-03   -0.48556E-05 60571   0.185E-02    0.289E-01
RMM:  41    -0.184997250991E+03   -0.27274E-02   -0.42201E-04 71142   0.558E-02    0.263E-01
RMM:  42    -0.184999404818E+03   -0.21538E-02   -0.63641E-04 73900   0.634E-02    0.228E-01
RMM:  43    -0.185000323381E+03   -0.91856E-03   -0.23826E-04 73239   0.403E-02    0.185E-01
RMM:  44    -0.185000456292E+03   -0.13291E-03   -0.32381E-05 57807   0.162E-02    0.184E-01
RMM:  45    -0.185000333898E+03    0.12239E-03   -0.49084E-06 46006   0.863E-03    0.187E-01
RMM:  46    -0.185000481729E+03   -0.14783E-03   -0.49069E-06 41978   0.608E-03    0.183E-01
RMM:  47    -0.185000454113E+03    0.27616E-04   -0.24551E-06 42187   0.560E-03    0.187E-01
RMM:  48    -0.185000597290E+03   -0.14318E-03   -0.40991E-06 43034   0.561E-03    0.180E-01
RMM:  49    -0.185001199833E+03   -0.60254E-03   -0.52449E-05 62953   0.179E-02    0.180E-01
RMM:  50    -0.185002454044E+03   -0.12542E-02   -0.50509E-04 71709   0.560E-02    0.198E-01
RMM:  51    -0.185002236790E+03    0.21725E-03   -0.10095E-04 70112   0.344E-02    0.192E-01
RMM:  52    -0.185003342466E+03   -0.11057E-02   -0.58148E-04 72496   0.623E-02    0.186E-01
RMM:  53    -0.185003803716E+03   -0.46125E-03   -0.35610E-04 73134   0.475E-02    0.167E-01
RMM:  54    -0.185003825912E+03   -0.22196E-04   -0.29670E-05 58026   0.190E-02    0.162E-01
RMM:  55    -0.185003978414E+03   -0.15250E-03   -0.21631E-04 70466   0.348E-02    0.178E-01
RMM:  56    -0.185003899379E+03    0.79035E-04   -0.50749E-05 63239   0.225E-02    0.132E-01
RMM:  57    -0.185003621186E+03    0.27819E-03   -0.21399E-04 68451   0.379E-02    0.972E-02
RMM:  58    -0.185003685912E+03   -0.64726E-04   -0.20240E-05 50575   0.179E-02    0.864E-02
RMM:  59    -0.185003449808E+03    0.23610E-03   -0.49793E-05 60875   0.173E-02    0.951E-02
RMM:  60    -0.185003460715E+03   -0.10907E-04   -0.13563E-05 45978   0.127E-02    0.976E-02
RMM:  61    -0.185003220247E+03    0.24047E-03   -0.38935E-05 57434   0.163E-02    0.108E-01
RMM:  62    -0.185003113106E+03    0.10714E-03   -0.13894E-05 44202   0.107E-02    0.945E-02
RMM:  63    -0.185003042204E+03    0.70902E-04   -0.84231E-06 42312   0.845E-03    0.888E-02
RMM:  64    -0.185002998308E+03    0.43896E-04   -0.46394E-06 39755   0.677E-03    0.819E-02
RMM:  65    -0.185002924022E+03    0.74286E-04   -0.76269E-06 40773   0.734E-03    0.778E-02
RMM:  66    -0.185002797628E+03    0.12639E-03   -0.21233E-05 50898   0.115E-02    0.652E-02
RMM:  67    -0.185003031287E+03   -0.23366E-03   -0.35332E-05 56897   0.169E-02    0.489E-02
RMM:  68    -0.185003021120E+03    0.10167E-04   -0.27846E-06 40907   0.630E-03    0.520E-02
RMM:  69    -0.185002979886E+03    0.41235E-04   -0.20665E-06 37121   0.436E-03    0.519E-02
RMM:  70    -0.185002994361E+03   -0.14476E-04   -0.42599E-06 39820   0.570E-03    0.526E-02
RMM:  71    -0.185003071462E+03   -0.77101E-04   -0.42241E-06 38084   0.546E-03    0.461E-02
RMM:  72    -0.185003142669E+03   -0.71206E-04   -0.82036E-06 40023   0.763E-03    0.422E-02
RMM:  73    -0.185003189345E+03   -0.46676E-04   -0.55136E-06 37305   0.620E-03    0.386E-02
RMM:  74    -0.185003190747E+03   -0.14018E-05   -0.11067E-06 35499   0.396E-03
   1 F= -.18500319E+03 E0= -.18500319E+03  d E =0.000000E+00  mag=     0.3670
