SrIr2O4 prototype                       
           1
     5.212061    0.000179    0.000063
     0.000180    5.407965   -0.016166
     0.000305   -0.045990   15.583966
   Sr   Ir   O 
   4   8  16
Direct configuration=     1
   0.49257850  0.04027581  0.11668451
   0.51044941  0.95880395  0.38390894
   0.00965994  0.54210013  0.11625038
   0.99252641  0.45974910  0.38333103
   0.00002819  0.00001942  0.25000676
   0.00559651  0.00106066  0.99459649
   0.49999538  0.49997635  0.25000391
   0.49440687  0.50106894  0.99459660
   0.99998309  0.99998116  0.75000113
   0.99428222  0.99888434  0.50541752
   0.49998449  0.49998936  0.75000283
   0.50360879  0.49916735  0.50492123
   0.27365442  0.22471282  0.49056599
   0.78762335  0.28405748  0.21836890
   0.77467299  0.27536015  0.00963253
   0.72535896  0.77522547  0.00915247
   0.21322145  0.71665907  0.28173012
   0.71318552  0.78344317  0.21851849
   0.22487287  0.72530529  0.49137468
   0.28748356  0.21597599  0.28184834
   0.27111442  0.23190187  0.98274309
   0.74994928  0.24997523  0.75005004
   0.76893584  0.26725800  0.51643047
   0.72844633  0.76747436  0.51779874
   0.24993975  0.74995139  0.74999048
   0.74992311  0.74998276  0.75004830
   0.22855129  0.73166643  0.98202764
   0.24996719  0.24997396  0.74999839
