   33   33  901    2
  0.1161538E+02  0.1392900E-08  0.2845900E-09  0.9678000E-09  0.5000000E-15
  1.000000000000000E-004
  CAR 
 unknown system                          
    240     12    152
 
  0.2500000E+00  0.8333333E-01  0.1250000E+00  0.8333333E-01
    1      -30.010827    -30.010827   1.000000   1.000000
    2      -29.417598    -29.417598   1.000000   1.000000
    3      -29.023061    -29.023061   1.000000   1.000000
    4      -15.178111    -15.178111   1.000000   1.000000
    5      -14.980208    -14.980208   1.000000   1.000000
    6      -14.778369    -14.778369   1.000000   1.000000
    7      -14.603084    -14.603084   1.000000   1.000000
    8      -14.529680    -14.529680   1.000000   1.000000
    9      -14.420195    -14.420195   1.000000   1.000000
   10      -14.304124    -14.304124   1.000000   1.000000
   11      -14.184624    -14.184624   1.000000   1.000000
   12      -13.986606    -13.986606   1.000000   1.000000
   13      -13.912573    -13.912573   1.000000   1.000000
   14      -13.859570    -13.859570   1.000000   1.000000
   15      -13.681455    -13.681455   1.000000   1.000000
   16      -13.671253    -13.671253   1.000000   1.000000
   17      -13.588865    -13.588865   1.000000   1.000000
   18      -13.543476    -13.543476   1.000000   1.000000
   19      -13.466646    -13.466646   1.000000   1.000000
   20      -13.381052    -13.381052   1.000000   1.000000
   21      -12.996832    -12.996832   1.000000   1.000000
   22      -12.879565    -12.879565   1.000000   1.000000
   23      -12.810201    -12.810201   1.000000   1.000000
   24      -11.724783    -11.724783   1.000000   1.000000
   25      -11.583334    -11.583334   1.000000   1.000000
   26      -11.549965    -11.549965   1.000000   1.000000
   27      -11.163430    -11.163430   1.000000   1.000000
   28      -11.020135    -11.020135   1.000000   1.000000
   29      -10.976010    -10.976010   1.000000   1.000000
   30      -10.837907    -10.837907   1.000000   1.000000
   31      -10.534186    -10.534186   1.000000   1.000000
   32      -10.362139    -10.362139   1.000000   1.000000
   33       -3.010533     -3.010533   1.000000   1.000000
   34       -2.927351     -2.927351   1.000000   1.000000
   35       -2.865368     -2.865368   1.000000   1.000000
   36       -2.693090     -2.693090   1.000000   1.000000
   37       -2.646328     -2.646328   1.000000   1.000000
   38       -2.462541     -2.462541   1.000000   1.000000
   39       -2.406496     -2.406496   1.000000   1.000000
   40       -2.274908     -2.274908   1.000000   1.000000
   41       -2.031288     -2.031288   1.000000   1.000000
   42       -1.933861     -1.933861   1.000000   1.000000
   43       -1.896219     -1.896219   1.000000   1.000000
   44       -1.838542     -1.838542   1.000000   1.000000
   45       -1.789858     -1.789858   1.000000   1.000000
   46       -1.613734     -1.613734   1.000000   1.000000
   47       -1.544833     -1.544833   1.000000   1.000000
   48       -1.472770     -1.472770   1.000000   1.000000
   49       -1.446160     -1.446160   1.000000   1.000000
   50       -1.368665     -1.368665   1.000000   1.000000
   51       -1.276721     -1.276721   1.000000   1.000000
   52       -1.139530     -1.139530   1.000000   1.000000
   53       -1.075249     -1.075249   1.000000   1.000000
   54       -1.033130     -1.033130   1.000000   1.000000
   55       -0.960446     -0.960446   1.000000   1.000000
   56       -0.873922     -0.873922   1.000000   1.000000
   57       -0.744534     -0.744534   1.000000   1.000000
   58       -0.719392     -0.719392   1.000000   1.000000
   59       -0.540674     -0.540674   1.000000   1.000000
   60       -0.318861     -0.318861   1.000000   1.000000
   61       -0.210272     -0.210272   1.000000   1.000000
   62       -0.024353     -0.024353   1.000000   1.000000
   63        0.155915      0.155915   1.000000   1.000000
   64        0.235232      0.235232   1.000000   1.000000
   65        0.265008      0.265008   1.000000   1.000000
   66        0.411682      0.411682   1.000000   1.000000
   67        0.479263      0.479263   1.000000   1.000000
   68        0.538108      0.538108   1.000000   1.000000
   69        0.653202      0.653202   1.000000   1.000000
   70        0.722372      0.722372   1.000000   1.000000
   71        0.784796      0.784796   1.000000   1.000000
   72        0.844665      0.844665   1.000000   1.000000
   73        0.876141      0.876141   1.000000   1.000000
   74        1.002655      1.002655   1.000000   1.000000
   75        1.079595      1.079595   1.000000   1.000000
   76        1.199814      1.199814   1.000000   1.000000
   77        1.317312      1.317312   1.000000   1.000000
   78        1.474008      1.474008   1.000000   1.000000
   79        1.515179      1.515179   1.000000   1.000000
   80        1.646030      1.646030   1.000000   1.000000
   81        1.686013      1.686013   1.000000   1.000000
   82        1.784550      1.784550   1.000000   1.000000
   83        1.894192      1.894192   1.000000   1.000000
   84        1.937588      1.937588   1.000000   1.000000
   85        2.073949      2.073949   1.000000   1.000000
   86        2.139850      2.139850   1.000000   1.000000
   87        2.258846      2.258846   1.000000   1.000000
   88        2.317945      2.317945   1.000000   1.000000
   89        2.359708      2.359708   1.000000   1.000000
   90        2.468016      2.468016   1.000000   1.000000
   91        2.507949      2.507949   1.000000   1.000000
   92        2.703412      2.703412   1.000000   1.000000
   93        3.552480      3.552480   1.000000   1.000000
   94        3.631144      3.631144   1.000000   1.000000
   95        3.702144      3.702144   1.000000   1.000000
   96        3.801580      3.801580   1.000000   1.000000
   97        3.892854      3.892854   1.000000   1.000000
   98        3.928889      3.928889   1.000000   1.000000
   99        3.992938      3.992938   1.000000   1.000000
  100        4.039805      4.039805   1.000000   1.000000
  101        4.142451      4.142451   1.000000   1.000000
  102        4.188163      4.188163   1.000000   1.000000
  103        4.297152      4.297152   1.000000   1.000000
  104        4.353456      4.353456   1.000000   1.000000
  105        4.407685      4.407685   1.000000   1.000000
  106        4.447933      4.447933   1.000000   1.000000
  107        4.483022      4.483022   1.000000   1.000000
  108        4.626467      4.626467   1.000000   1.000000
  109        4.687877      4.687877   1.000000   1.000000
  110        4.769361      4.769361   1.000000   1.000000
  111        4.835368      4.835368   1.000000   1.000000
  112        4.906250      4.906250   1.000000   1.000000
  113        4.931864      4.931864   1.000000   1.000000
  114        5.080405      5.080405   1.000000   1.000000
  115        5.244682      5.244682   0.999984   0.999984
  116        5.441150      5.441150   0.998323   0.998323
  117        5.531616      5.531616   0.995297   0.995297
  118        5.648522      5.648522   1.008796   1.008796
  119        5.731133      5.731133   1.044775   1.044775
  120        5.819362      5.819362   1.014285   1.014285
  121        6.049645      6.049645   0.075755   0.075755
  122        6.250066      6.250066  -0.012624  -0.012624
  123        6.885315      6.885315   0.000000   0.000000
  124        7.445685      7.445685   0.000000   0.000000
  125        7.551224      7.551224   0.000000   0.000000
  126        7.680429      7.680429   0.000000   0.000000
  127        7.867494      7.867494   0.000000   0.000000
  128        7.927274      7.927274   0.000000   0.000000
  129        7.998489      7.998489   0.000000   0.000000
  130        8.098920      8.098920   0.000000   0.000000
  131        8.183114      8.183114   0.000000   0.000000
  132        8.291563      8.291563   0.000000   0.000000
  133        8.550308      8.550308   0.000000   0.000000
  134        8.614846      8.614846   0.000000   0.000000
  135        8.680335      8.680335   0.000000   0.000000
  136        8.707937      8.707937   0.000000   0.000000
  137        8.766938      8.766938   0.000000   0.000000
  138        8.816878      8.816878   0.000000   0.000000
  139        8.845159      8.845159   0.000000   0.000000
  140        8.959686      8.959686   0.000000   0.000000
  141        9.065206      9.065206   0.000000   0.000000
  142        9.201029      9.201029   0.000000   0.000000
  143        9.452406      9.452406   0.000000   0.000000
  144        9.518367      9.518367   0.000000   0.000000
  145        9.603785      9.603785   0.000000   0.000000
  146        9.711500      9.711500   0.000000   0.000000
  147        9.783929      9.783929   0.000000   0.000000
  148       10.248939     10.248939   0.000000   0.000000
  149       10.318475     10.318475   0.000000   0.000000
  150       10.992320     10.992320   0.000000   0.000000
  151       11.165717     11.165717   0.000000   0.000000
  152       11.381208     11.381208   0.000000   0.000000
 
 -0.2500000E+00  0.8333333E-01  0.1250000E+00  0.8333333E-01
    1      -30.010829    -30.010829   1.000000   1.000000
    2      -29.417600    -29.417600   1.000000   1.000000
    3      -29.023062    -29.023062   1.000000   1.000000
    4      -15.177653    -15.177653   1.000000   1.000000
    5      -14.981316    -14.981316   1.000000   1.000000
    6      -14.776828    -14.776828   1.000000   1.000000
    7      -14.595558    -14.595558   1.000000   1.000000
    8      -14.545558    -14.545558   1.000000   1.000000
    9      -14.406324    -14.406324   1.000000   1.000000
   10      -14.317723    -14.317723   1.000000   1.000000
   11      -14.180168    -14.180168   1.000000   1.000000
   12      -13.987550    -13.987550   1.000000   1.000000
   13      -13.914711    -13.914711   1.000000   1.000000
   14      -13.840999    -13.840999   1.000000   1.000000
   15      -13.698999    -13.698999   1.000000   1.000000
   16      -13.650742    -13.650742   1.000000   1.000000
   17      -13.622622    -13.622622   1.000000   1.000000
   18      -13.524647    -13.524647   1.000000   1.000000
   19      -13.472716    -13.472716   1.000000   1.000000
   20      -13.378584    -13.378584   1.000000   1.000000
   21      -12.999331    -12.999331   1.000000   1.000000
   22      -12.878023    -12.878023   1.000000   1.000000
   23      -12.808231    -12.808231   1.000000   1.000000
   24      -11.724919    -11.724919   1.000000   1.000000
   25      -11.583769    -11.583769   1.000000   1.000000
   26      -11.550201    -11.550201   1.000000   1.000000
   27      -11.163035    -11.163035   1.000000   1.000000
   28      -11.020245    -11.020245   1.000000   1.000000
   29      -10.975955    -10.975955   1.000000   1.000000
   30      -10.837948    -10.837948   1.000000   1.000000
   31      -10.534194    -10.534194   1.000000   1.000000
   32      -10.362213    -10.362213   1.000000   1.000000
   33       -3.007893     -3.007893   1.000000   1.000000
   34       -2.918630     -2.918630   1.000000   1.000000
   35       -2.875224     -2.875224   1.000000   1.000000
   36       -2.706928     -2.706928   1.000000   1.000000
   37       -2.615588     -2.615588   1.000000   1.000000
   38       -2.461395     -2.461395   1.000000   1.000000
   39       -2.425392     -2.425392   1.000000   1.000000
   40       -2.299790     -2.299790   1.000000   1.000000
   41       -2.026158     -2.026158   1.000000   1.000000
   42       -1.927742     -1.927742   1.000000   1.000000
   43       -1.892131     -1.892131   1.000000   1.000000
   44       -1.831571     -1.831571   1.000000   1.000000
   45       -1.775525     -1.775525   1.000000   1.000000
   46       -1.612386     -1.612386   1.000000   1.000000
   47       -1.544718     -1.544718   1.000000   1.000000
   48       -1.503251     -1.503251   1.000000   1.000000
   49       -1.436813     -1.436813   1.000000   1.000000
   50       -1.352548     -1.352548   1.000000   1.000000
   51       -1.291525     -1.291525   1.000000   1.000000
   52       -1.135481     -1.135481   1.000000   1.000000
   53       -1.090830     -1.090830   1.000000   1.000000
   54       -0.999720     -0.999720   1.000000   1.000000
   55       -0.939730     -0.939730   1.000000   1.000000
   56       -0.885562     -0.885562   1.000000   1.000000
   57       -0.771497     -0.771497   1.000000   1.000000
   58       -0.730118     -0.730118   1.000000   1.000000
   59       -0.579868     -0.579868   1.000000   1.000000
   60       -0.326162     -0.326162   1.000000   1.000000
   61       -0.103786     -0.103786   1.000000   1.000000
   62       -0.032370     -0.032370   1.000000   1.000000
   63        0.132966      0.132966   1.000000   1.000000
   64        0.222718      0.222718   1.000000   1.000000
   65        0.274561      0.274561   1.000000   1.000000
   66        0.389437      0.389437   1.000000   1.000000
   67        0.493037      0.493037   1.000000   1.000000
   68        0.530619      0.530619   1.000000   1.000000
   69        0.669804      0.669804   1.000000   1.000000
   70        0.729488      0.729488   1.000000   1.000000
   71        0.774368      0.774368   1.000000   1.000000
   72        0.815798      0.815798   1.000000   1.000000
   73        0.879133      0.879133   1.000000   1.000000
   74        1.012197      1.012197   1.000000   1.000000
   75        1.124291      1.124291   1.000000   1.000000
   76        1.197929      1.197929   1.000000   1.000000
   77        1.272703      1.272703   1.000000   1.000000
   78        1.399240      1.399240   1.000000   1.000000
   79        1.530494      1.530494   1.000000   1.000000
   80        1.681036      1.681036   1.000000   1.000000
   81        1.716571      1.716571   1.000000   1.000000
   82        1.759796      1.759796   1.000000   1.000000
   83        1.912723      1.912723   1.000000   1.000000
   84        1.958668      1.958668   1.000000   1.000000
   85        2.027516      2.027516   1.000000   1.000000
   86        2.175930      2.175930   1.000000   1.000000
   87        2.253459      2.253459   1.000000   1.000000
   88        2.284294      2.284294   1.000000   1.000000
   89        2.376430      2.376430   1.000000   1.000000
   90        2.464126      2.464126   1.000000   1.000000
   91        2.515177      2.515177   1.000000   1.000000
   92        2.715551      2.715551   1.000000   1.000000
   93        3.523845      3.523845   1.000000   1.000000
   94        3.641632      3.641632   1.000000   1.000000
   95        3.700235      3.700235   1.000000   1.000000
   96        3.820321      3.820321   1.000000   1.000000
   97        3.894905      3.894905   1.000000   1.000000
   98        3.942086      3.942086   1.000000   1.000000
   99        3.980050      3.980050   1.000000   1.000000
  100        4.084548      4.084548   1.000000   1.000000
  101        4.115690      4.115690   1.000000   1.000000
  102        4.188183      4.188183   1.000000   1.000000
  103        4.251559      4.251559   1.000000   1.000000
  104        4.365174      4.365174   1.000000   1.000000
  105        4.405169      4.405169   1.000000   1.000000
  106        4.437413      4.437413   1.000000   1.000000
  107        4.516272      4.516272   1.000000   1.000000
  108        4.606803      4.606803   1.000000   1.000000
  109        4.683706      4.683706   1.000000   1.000000
  110        4.762278      4.762278   1.000000   1.000000
  111        4.851013      4.851013   1.000000   1.000000
  112        4.917265      4.917265   1.000000   1.000000
  113        4.923633      4.923633   1.000000   1.000000
  114        5.080925      5.080925   1.000000   1.000000
  115        5.246099      5.246099   0.999984   0.999984
  116        5.440155      5.440155   0.998350   0.998350
  117        5.521061      5.521061   0.995577   0.995577
  118        5.636750      5.636750   1.005161   1.005161
  119        5.738035      5.738035   1.047200   1.047200
  120        5.841624      5.841624   0.972082   0.972082
  121        6.037311      6.037311   0.115764   0.115764
  122        6.252729      6.252729  -0.011623  -0.011623
  123        6.875661      6.875661   0.000000   0.000000
  124        7.475404      7.475404   0.000000   0.000000
  125        7.549032      7.549032   0.000000   0.000000
  126        7.685353      7.685353   0.000000   0.000000
  127        7.809979      7.809979   0.000000   0.000000
  128        7.946461      7.946461   0.000000   0.000000
  129        7.985089      7.985089   0.000000   0.000000
  130        8.114379      8.114379   0.000000   0.000000
  131        8.208877      8.208877   0.000000   0.000000
  132        8.271693      8.271693   0.000000   0.000000
  133        8.545180      8.545180   0.000000   0.000000
  134        8.619806      8.619806   0.000000   0.000000
  135        8.686213      8.686213   0.000000   0.000000
  136        8.718585      8.718585   0.000000   0.000000
  137        8.755780      8.755780   0.000000   0.000000
  138        8.829908      8.829908   0.000000   0.000000
  139        8.847234      8.847234   0.000000   0.000000
  140        8.946349      8.946349   0.000000   0.000000
  141        9.078901      9.078901   0.000000   0.000000
  142        9.207325      9.207325   0.000000   0.000000
  143        9.455634      9.455634   0.000000   0.000000
  144        9.486345      9.486345   0.000000   0.000000
  145        9.591706      9.591706   0.000000   0.000000
  146        9.700405      9.700405   0.000000   0.000000
  147        9.777625      9.777625   0.000000   0.000000
  148       10.257333     10.257333   0.000000   0.000000
  149       10.356155     10.356155   0.000000   0.000000
  150       10.921112     10.921112   0.000000   0.000000
  151       11.248900     11.248900   0.000000   0.000000
  152       11.456039     11.456039   0.000000   0.000000
 
  0.2500000E+00  0.2500000E+00  0.1250000E+00  0.8333333E-01
    1      -29.932854    -29.932854   1.000000   1.000000
    2      -29.336323    -29.336323   1.000000   1.000000
    3      -28.940507    -28.940507   1.000000   1.000000
    4      -14.797258    -14.797258   1.000000   1.000000
    5      -14.618107    -14.618107   1.000000   1.000000
    6      -14.450444    -14.450444   1.000000   1.000000
    7      -14.314536    -14.314536   1.000000   1.000000
    8      -14.285594    -14.285594   1.000000   1.000000
    9      -14.203233    -14.203233   1.000000   1.000000
   10      -14.067652    -14.067652   1.000000   1.000000
   11      -14.027307    -14.027307   1.000000   1.000000
   12      -13.987580    -13.987580   1.000000   1.000000
   13      -13.924032    -13.924032   1.000000   1.000000
   14      -13.854271    -13.854271   1.000000   1.000000
   15      -13.726497    -13.726497   1.000000   1.000000
   16      -13.704566    -13.704566   1.000000   1.000000
   17      -13.642300    -13.642300   1.000000   1.000000
   18      -13.565312    -13.565312   1.000000   1.000000
   19      -13.530503    -13.530503   1.000000   1.000000
   20      -13.455061    -13.455061   1.000000   1.000000
   21      -13.104075    -13.104075   1.000000   1.000000
   22      -13.012982    -13.012982   1.000000   1.000000
   23      -12.882134    -12.882134   1.000000   1.000000
   24      -12.069015    -12.069015   1.000000   1.000000
   25      -11.737834    -11.737834   1.000000   1.000000
   26      -11.627416    -11.627416   1.000000   1.000000
   27      -11.499597    -11.499597   1.000000   1.000000
   28      -11.203694    -11.203694   1.000000   1.000000
   29      -11.096789    -11.096789   1.000000   1.000000
   30      -10.909986    -10.909986   1.000000   1.000000
   31      -10.898656    -10.898656   1.000000   1.000000
   32      -10.521557    -10.521557   1.000000   1.000000
   33       -2.511648     -2.511648   1.000000   1.000000
   34       -2.475411     -2.475411   1.000000   1.000000
   35       -2.400631     -2.400631   1.000000   1.000000
   36       -2.294337     -2.294337   1.000000   1.000000
   37       -2.239392     -2.239392   1.000000   1.000000
   38       -2.113659     -2.113659   1.000000   1.000000
   39       -1.990125     -1.990125   1.000000   1.000000
   40       -1.967009     -1.967009   1.000000   1.000000
   41       -1.926998     -1.926998   1.000000   1.000000
   42       -1.869169     -1.869169   1.000000   1.000000
   43       -1.792747     -1.792747   1.000000   1.000000
   44       -1.670714     -1.670714   1.000000   1.000000
   45       -1.626080     -1.626080   1.000000   1.000000
   46       -1.585588     -1.585588   1.000000   1.000000
   47       -1.513381     -1.513381   1.000000   1.000000
   48       -1.429888     -1.429888   1.000000   1.000000
   49       -1.385513     -1.385513   1.000000   1.000000
   50       -1.311479     -1.311479   1.000000   1.000000
   51       -1.243798     -1.243798   1.000000   1.000000
   52       -1.141580     -1.141580   1.000000   1.000000
   53       -1.102855     -1.102855   1.000000   1.000000
   54       -0.997193     -0.997193   1.000000   1.000000
   55       -0.905545     -0.905545   1.000000   1.000000
   56       -0.813767     -0.813767   1.000000   1.000000
   57       -0.722369     -0.722369   1.000000   1.000000
   58       -0.691384     -0.691384   1.000000   1.000000
   59       -0.611173     -0.611173   1.000000   1.000000
   60       -0.549209     -0.549209   1.000000   1.000000
   61       -0.473291     -0.473291   1.000000   1.000000
   62       -0.316651     -0.316651   1.000000   1.000000
   63       -0.216144     -0.216144   1.000000   1.000000
   64       -0.206477     -0.206477   1.000000   1.000000
   65       -0.107882     -0.107882   1.000000   1.000000
   66       -0.014435     -0.014435   1.000000   1.000000
   67        0.064118      0.064118   1.000000   1.000000
   68        0.245464      0.245464   1.000000   1.000000
   69        0.375086      0.375086   1.000000   1.000000
   70        0.496067      0.496067   1.000000   1.000000
   71        0.587804      0.587804   1.000000   1.000000
   72        0.705567      0.705567   1.000000   1.000000
   73        0.809179      0.809179   1.000000   1.000000
   74        0.904222      0.904222   1.000000   1.000000
   75        1.010003      1.010003   1.000000   1.000000
   76        1.055574      1.055574   1.000000   1.000000
   77        1.106395      1.106395   1.000000   1.000000
   78        1.186774      1.186774   1.000000   1.000000
   79        1.309155      1.309155   1.000000   1.000000
   80        1.366302      1.366302   1.000000   1.000000
   81        1.414545      1.414545   1.000000   1.000000
   82        1.502050      1.502050   1.000000   1.000000
   83        1.558874      1.558874   1.000000   1.000000
   84        1.613310      1.613310   1.000000   1.000000
   85        1.727776      1.727776   1.000000   1.000000
   86        1.779056      1.779056   1.000000   1.000000
   87        1.940979      1.940979   1.000000   1.000000
   88        2.007940      2.007940   1.000000   1.000000
   89        2.059690      2.059690   1.000000   1.000000
   90        2.152744      2.152744   1.000000   1.000000
   91        2.245287      2.245287   1.000000   1.000000
   92        2.359845      2.359845   1.000000   1.000000
   93        3.646606      3.646606   1.000000   1.000000
   94        3.744503      3.744503   1.000000   1.000000
   95        3.905652      3.905652   1.000000   1.000000
   96        4.006185      4.006185   1.000000   1.000000
   97        4.107500      4.107500   1.000000   1.000000
   98        4.196205      4.196205   1.000000   1.000000
   99        4.272541      4.272541   1.000000   1.000000
  100        4.339029      4.339029   1.000000   1.000000
  101        4.403016      4.403016   1.000000   1.000000
  102        4.486563      4.486563   1.000000   1.000000
  103        4.595229      4.595229   1.000000   1.000000
  104        4.639175      4.639175   1.000000   1.000000
  105        4.683616      4.683616   1.000000   1.000000
  106        4.762984      4.762984   1.000000   1.000000
  107        4.792081      4.792081   1.000000   1.000000
  108        4.878495      4.878495   1.000000   1.000000
  109        4.916496      4.916496   1.000000   1.000000
  110        5.012122      5.012122   1.000000   1.000000
  111        5.042331      5.042331   1.000000   1.000000
  112        5.116862      5.116862   1.000000   1.000000
  113        5.264436      5.264436   0.999972   0.999972
  114        5.338969      5.338969   0.999794   0.999794
  115        5.405668      5.405668   0.999113   0.999113
  116        5.602635      5.602635   0.998107   0.998107
  117        5.627890      5.627890   1.002842   1.002842
  118        5.698399      5.698399   1.030057   1.030057
  119        5.748161      5.748161   1.049949   1.049949
  120        5.877314      5.877314   0.865035   0.865035
  121        5.945244      5.945244   0.549553   0.549553
  122        6.010119      6.010119   0.223357   0.223357
  123        7.023756      7.023756   0.000000   0.000000
  124        7.298299      7.298299   0.000000   0.000000
  125        7.398656      7.398656   0.000000   0.000000
  126        7.555336      7.555336   0.000000   0.000000
  127        7.638061      7.638061   0.000000   0.000000
  128        7.745101      7.745101   0.000000   0.000000
  129        7.851566      7.851566   0.000000   0.000000
  130        7.896093      7.896093   0.000000   0.000000
  131        8.062219      8.062219   0.000000   0.000000
  132        8.207223      8.207223   0.000000   0.000000
  133        8.254994      8.254994   0.000000   0.000000
  134        8.335301      8.335301   0.000000   0.000000
  135        8.440545      8.440545   0.000000   0.000000
  136        8.580897      8.580897   0.000000   0.000000
  137        8.686431      8.686431   0.000000   0.000000
  138        8.806871      8.806871   0.000000   0.000000
  139        8.876763      8.876763   0.000000   0.000000
  140        8.972474      8.972474   0.000000   0.000000
  141        9.004957      9.004957   0.000000   0.000000
  142        9.156339      9.156339   0.000000   0.000000
  143        9.616151      9.616151   0.000000   0.000000
  144        9.824329      9.824329   0.000000   0.000000
  145       10.188296     10.188296   0.000000   0.000000
  146       10.344235     10.344235   0.000000   0.000000
  147       10.737312     10.737312   0.000000   0.000000
  148       10.948732     10.948732   0.000000   0.000000
  149       11.236513     11.236513   0.000000   0.000000
  150       11.292024     11.292024   0.000000   0.000000
  151       11.521083     11.521083   0.000000   0.000000
  152       11.753292     11.753292   0.000000   0.000000
 
 -0.2500000E+00  0.2500000E+00  0.1250000E+00  0.8333333E-01
    1      -29.932853    -29.932853   1.000000   1.000000
    2      -29.336323    -29.336323   1.000000   1.000000
    3      -28.940507    -28.940507   1.000000   1.000000
    4      -14.796843    -14.796843   1.000000   1.000000
    5      -14.617964    -14.617964   1.000000   1.000000
    6      -14.455914    -14.455914   1.000000   1.000000
    7      -14.303372    -14.303372   1.000000   1.000000
    8      -14.291068    -14.291068   1.000000   1.000000
    9      -14.199502    -14.199502   1.000000   1.000000
   10      -14.071600    -14.071600   1.000000   1.000000
   11      -14.026513    -14.026513   1.000000   1.000000
   12      -13.993675    -13.993675   1.000000   1.000000
   13      -13.927232    -13.927232   1.000000   1.000000
   14      -13.836909    -13.836909   1.000000   1.000000
   15      -13.733077    -13.733077   1.000000   1.000000
   16      -13.709086    -13.709086   1.000000   1.000000
   17      -13.653692    -13.653692   1.000000   1.000000
   18      -13.552421    -13.552421   1.000000   1.000000
   19      -13.524755    -13.524755   1.000000   1.000000
   20      -13.460692    -13.460692   1.000000   1.000000
   21      -13.105119    -13.105119   1.000000   1.000000
   22      -13.012204    -13.012204   1.000000   1.000000
   23      -12.882167    -12.882167   1.000000   1.000000
   24      -12.069029    -12.069029   1.000000   1.000000
   25      -11.737824    -11.737824   1.000000   1.000000
   26      -11.627544    -11.627544   1.000000   1.000000
   27      -11.499521    -11.499521   1.000000   1.000000
   28      -11.203667    -11.203667   1.000000   1.000000
   29      -11.096766    -11.096766   1.000000   1.000000
   30      -10.909998    -10.909998   1.000000   1.000000
   31      -10.898631    -10.898631   1.000000   1.000000
   32      -10.521568    -10.521568   1.000000   1.000000
   33       -2.508865     -2.508865   1.000000   1.000000
   34       -2.473342     -2.473342   1.000000   1.000000
   35       -2.411658     -2.411658   1.000000   1.000000
   36       -2.286451     -2.286451   1.000000   1.000000
   37       -2.242561     -2.242561   1.000000   1.000000
   38       -2.112722     -2.112722   1.000000   1.000000
   39       -2.009831     -2.009831   1.000000   1.000000
   40       -1.969122     -1.969122   1.000000   1.000000
   41       -1.912251     -1.912251   1.000000   1.000000
   42       -1.827118     -1.827118   1.000000   1.000000
   43       -1.793111     -1.793111   1.000000   1.000000
   44       -1.702214     -1.702214   1.000000   1.000000
   45       -1.629911     -1.629911   1.000000   1.000000
   46       -1.577873     -1.577873   1.000000   1.000000
   47       -1.503460     -1.503460   1.000000   1.000000
   48       -1.477598     -1.477598   1.000000   1.000000
   49       -1.366977     -1.366977   1.000000   1.000000
   50       -1.344730     -1.344730   1.000000   1.000000
   51       -1.236332     -1.236332   1.000000   1.000000
   52       -1.144393     -1.144393   1.000000   1.000000
   53       -1.058718     -1.058718   1.000000   1.000000