 running on   96 total cores
 distrk:  each k-point on   96 cores,    1 groups
 distr:  one band on   12 cores,    8 groups
 using from now: INCAR     
 vasp.5.4.1 24Jun15 (build Nov 16 2016 17:59:42) complex                        
  
 POSCAR found type information on POSCAR  Sr Ir O 
 POSCAR found :  3 types and      33 ions
 scaLAPACK will be used

 ----------------------------------------------------------------------------- 
|                                                                             |
|  ADVICE TO THIS USER RUNNING 'VASP/VAMP'   (HEAR YOUR MASTER'S VOICE ...):  |
|                                                                             |
|      You have a (more or less) 'large supercell' and for larger cells       |
|      it might be more efficient to use real space projection opertators     |
|      So try LREAL= Auto  in the INCAR   file.                               |
|      Mind: At the moment your POTCAR file does not contain real space       |
|       projectors, and has to be modified,  BUT if you                       |
|      want to do an extremely  accurate calculation you might also keep the  |
|      reciprocal projection scheme          (i.e. LREAL=.FALSE.)             |
|                                                                             |
 ----------------------------------------------------------------------------- 

 LDA part: xc-table for Pade appr. of Perdew
 POSCAR, INCAR and KPOINTS ok, starting setup
 FFT: planning ...
 WAVECAR not read
 entering main loop
       N       E                     dE             d eps       ncg     rms          rms(c)
DAV:   1     0.237203475741E+04    0.23720E+04   -0.10183E+05  7296   0.129E+03
DAV:   2     0.624295509367E+02   -0.23096E+04   -0.21823E+04  7488   0.416E+02
DAV:   3    -0.224650757291E+03   -0.28708E+03   -0.27419E+03  9832   0.154E+02
DAV:   4    -0.239159448856E+03   -0.14509E+02   -0.14085E+02 10176   0.325E+01
DAV:   5    -0.239866444142E+03   -0.70700E+00   -0.70369E+00 11600   0.590E+00    0.157E+02
RMM:   6    -0.219658609452E+03    0.20208E+02   -0.24812E+02  7543   0.382E+01    0.911E+01
RMM:   7    -0.209480959439E+03    0.10178E+02   -0.30722E+01  7306   0.146E+01    0.562E+01
RMM:   8    -0.224085316276E+03   -0.14604E+02   -0.57147E+01  7917   0.163E+01    0.103E+02
RMM:   9    -0.212014575877E+03    0.12071E+02   -0.67569E+00  7760   0.596E+00    0.380E+01
RMM:  10    -0.210350784066E+03    0.16638E+01   -0.12635E+01  7309   0.857E+00    0.239E+01
RMM:  11    -0.202792533564E+03    0.75583E+01   -0.47262E+00  7430   0.506E+00    0.149E+01
RMM:  12    -0.202065810749E+03    0.72672E+00   -0.87461E-01  8162   0.198E+00    0.139E+01
RMM:  13    -0.202404524541E+03   -0.33871E+00   -0.48066E-01  7356   0.161E+00    0.137E+01
RMM:  14    -0.201596190561E+03    0.80833E+00   -0.43882E-01  7346   0.156E+00    0.899E+00
RMM:  15    -0.201414918839E+03    0.18127E+00   -0.18076E-01  7707   0.928E-01    0.802E+00
RMM:  16    -0.201420364765E+03   -0.54459E-02   -0.18161E-01  7527   0.920E-01    0.719E+00
RMM:  17    -0.201524210786E+03   -0.10385E+00   -0.10816E-01  7334   0.802E-01    0.667E+00
RMM:  18    -0.201554862578E+03   -0.30652E-01   -0.12206E-01  7326   0.775E-01    0.523E+00
RMM:  19    -0.201621528477E+03   -0.66666E-01   -0.18029E-01  7321   0.918E-01    0.389E+00
RMM:  20    -0.201587040781E+03    0.34488E-01   -0.29995E-02  7794   0.364E-01    0.315E+00
RMM:  21    -0.201596914490E+03   -0.98737E-02   -0.94028E-03  7666   0.214E-01    0.276E+00
RMM:  22    -0.201590105383E+03    0.68091E-02   -0.41799E-03  7753   0.141E-01    0.218E+00
RMM:  23    -0.201589996435E+03    0.10895E-03   -0.21311E-03  7964   0.105E-01    0.177E+00
RMM:  24    -0.201587064631E+03    0.29318E-02   -0.26822E-03  7337   0.125E-01    0.123E+00
RMM:  25    -0.201586381798E+03    0.68283E-03   -0.10426E-03  7647   0.805E-02    0.931E-01
RMM:  26    -0.201586068065E+03    0.31373E-03   -0.49776E-04  7724   0.527E-02    0.776E-01
RMM:  27    -0.201585583102E+03    0.48496E-03   -0.13088E-03  7311   0.922E-02    0.436E-01
RMM:  28    -0.201585545919E+03    0.37183E-04   -0.15615E-03  7396   0.100E-01    0.188E-01
RMM:  29    -0.201586129926E+03   -0.58401E-03   -0.13004E-03  7731   0.874E-02    0.212E-01
RMM:  30    -0.201586435689E+03   -0.30576E-03   -0.65339E-04  7879   0.611E-02    0.324E-01
RMM:  31    -0.201586513055E+03   -0.77366E-04   -0.12666E-04  7843   0.304E-02    0.228E-01
RMM:  32    -0.201586587824E+03   -0.74769E-04   -0.91249E-05  7582   0.235E-02    0.206E-01
RMM:  33    -0.201586596960E+03   -0.91358E-05   -0.40380E-05  7596   0.166E-02    0.152E-01
RMM:  34    -0.201586582951E+03    0.14009E-04   -0.34756E-05  7340   0.147E-02    0.772E-02
RMM:  35    -0.201586584321E+03   -0.13706E-05   -0.28317E-05  7495   0.132E-02    0.285E-02
RMM:  36    -0.201586588333E+03   -0.40112E-05   -0.73211E-06  7950   0.639E-03    0.261E-02
RMM:  37    -0.201586589740E+03   -0.14074E-05   -0.44144E-06  7568   0.467E-03    0.115E-02
RMM:  38    -0.201586590629E+03   -0.88871E-06   -0.16218E-06  7346   0.274E-03    0.766E-03
RMM:  39    -0.201586591710E+03   -0.10808E-05   -0.13659E-06  6585   0.243E-03    0.727E-03
RMM:  40    -0.201586592325E+03   -0.61554E-06   -0.76786E-07  5436   0.185E-03    0.574E-03
RMM:  41    -0.201586592883E+03   -0.55817E-06   -0.94241E-07  5605   0.195E-03    0.431E-03
RMM:  42    -0.201586593205E+03   -0.32139E-06   -0.64754E-07  5273   0.166E-03    0.339E-03
RMM:  43    -0.201586593486E+03   -0.28146E-06   -0.73549E-07  5416   0.175E-03    0.217E-03
RMM:  44    -0.201586593567E+03   -0.80443E-07   -0.17868E-07  4644   0.104E-03
   1 F= -.20158659E+03 E0= -.20158091E+03  d E =-.201587E+03  mag=    -0.1978
 curvature:   0.00 expect dE= 0.000E+00 dE for cont linesearch  0.000E+00
 trial: gam= 0.00000 g(F)=  0.206E+02 g(S)=  0.781E+02 ort = 0.000E+00 (trialstep = 0.100E+01)
 search vector abs. value=  0.988E+02
 bond charge predicted
       N       E                     dE             d eps       ncg     rms          rms(c)
DAV:   1    -0.350819207034E+03   -0.14923E+03   -0.12472E+04  7600   0.352E+02    0.259E+02
RMM:   2    -0.308844133473E+03    0.41975E+02   -0.12432E+03  7863   0.921E+01    0.158E+02
RMM:   3    -0.258260045566E+03    0.50584E+02   -0.24170E+02  8141   0.366E+01    0.137E+02
RMM:   4    -0.204125008194E+03    0.54135E+02   -0.96820E+01  7703   0.256E+01    0.118E+02
RMM:   5    -0.221259271525E+03   -0.17134E+02   -0.61690E+01  8603   0.164E+01    0.120E+02
RMM:   6    -0.204296068212E+03    0.16963E+02   -0.26121E+01  8108   0.117E+01    0.108E+02
RMM:   7    -0.177674910868E+03    0.26621E+02   -0.12162E+01  7668   0.863E+00    0.946E+01
RMM:   8    -0.174723187309E+03    0.29517E+01   -0.69325E+00  7775   0.624E+00    0.909E+01
RMM:   9    -0.176691943550E+03   -0.19688E+01   -0.44726E+00  7955   0.470E+00    0.817E+01
RMM:  10    -0.176002343003E+03    0.68960E+00   -0.77811E+00  7561   0.635E+00    0.707E+01
RMM:  11    -0.177087515181E+03   -0.10852E+01   -0.15720E+01  7897   0.880E+00    0.536E+01
RMM:  12    -0.171034877419E+03    0.60526E+01   -0.89028E+00  8543   0.642E+00    0.386E+01
RMM:  13    -0.171861171199E+03   -0.82629E+00   -0.61162E+00  7762   0.560E+00    0.308E+01
RMM:  14    -0.167730277652E+03    0.41309E+01   -0.25883E+00  7816   0.379E+00    0.227E+01
RMM:  15    -0.166480098993E+03    0.12502E+01   -0.18573E+00  7987   0.299E+00    0.173E+01
RMM:  16    -0.165704898402E+03    0.77520E+00   -0.47006E-01  8460   0.154E+00    0.160E+01
RMM:  17    -0.165498266555E+03    0.20663E+00   -0.15795E-01 10325   0.717E-01    0.147E+01
RMM:  18    -0.165748979149E+03   -0.25071E+00   -0.34464E-01  7997   0.123E+00    0.147E+01
RMM:  19    -0.165376857017E+03    0.37212E+00   -0.18798E-01  7521   0.104E+00    0.118E+01
RMM:  20    -0.165141482486E+03    0.23537E+00   -0.29608E-01  7540   0.124E+00    0.889E+00
RMM:  21    -0.165058832080E+03    0.82650E-01   -0.29170E-01  7888   0.119E+00    0.648E+00
RMM:  22    -0.164948241071E+03    0.11059E+00   -0.66764E-02  8767   0.508E-01    0.558E+00
RMM:  23    -0.164907672215E+03    0.40569E-01   -0.34291E-02  8050   0.376E-01    0.449E+00
RMM:  24    -0.164866640811E+03    0.41031E-01   -0.24574E-02  7864   0.349E-01    0.321E+00
RMM:  25    -0.164859888088E+03    0.67527E-02   -0.21918E-02  8059   0.301E-01    0.255E+00
RMM:  26    -0.164863558432E+03   -0.36703E-02   -0.61594E-03  7796   0.179E-01    0.236E+00
RMM:  27    -0.164859521007E+03    0.40374E-02   -0.42872E-03  7550   0.184E-01    0.246E+00
RMM:  28    -0.164862860499E+03   -0.33395E-02   -0.11263E-03  8364   0.872E-02    0.251E+00
RMM:  29    -0.164847203850E+03    0.15657E-01   -0.14967E-02  7298   0.292E-01    0.200E+00
RMM:  30    -0.164849939890E+03   -0.27360E-02   -0.72379E-03  7323   0.253E-01    0.162E+00
RMM:  31    -0.164849816101E+03    0.12379E-03   -0.16761E-03  7536   0.128E-01    0.168E+00
RMM:  32    -0.164845974599E+03    0.38415E-02   -0.16640E-03  7413   0.971E-02    0.157E+00
RMM:  33    -0.164843897630E+03    0.20770E-02   -0.49504E-03  7417   0.151E-01    0.119E+00
RMM:  34    -0.164841233991E+03    0.26636E-02   -0.53771E-03  7489   0.173E-01    0.729E-01
RMM:  35    -0.164840965166E+03    0.26883E-03   -0.20995E-03  8601   0.939E-02    0.576E-01
RMM:  36    -0.164839986472E+03    0.97869E-03   -0.12763E-03  7618   0.729E-02    0.381E-01
RMM:  37    -0.164839727110E+03    0.25936E-03   -0.90815E-04  8509   0.597E-02    0.273E-01
RMM:  38    -0.164839605966E+03    0.12114E-03   -0.27654E-04  9155   0.299E-02    0.232E-01
RMM:  39    -0.164839572692E+03    0.33274E-04   -0.50132E-05  8734   0.179E-02    0.238E-01
RMM:  40    -0.164839579794E+03   -0.71025E-05   -0.11629E-05 10942   0.499E-03    0.238E-01
RMM:  41    -0.164839618683E+03   -0.38888E-04   -0.18483E-05  7513   0.987E-03    0.231E-01
RMM:  42    -0.164839512915E+03    0.10577E-03   -0.18584E-05  7421   0.116E-02    0.226E-01
RMM:  43    -0.164839165312E+03    0.34760E-03   -0.30263E-04  7311   0.395E-02    0.226E-01
RMM:  44    -0.164839040984E+03    0.12433E-03   -0.14912E-03  7323   0.846E-02    0.311E-01
RMM:  45    -0.164839375481E+03   -0.33450E-03   -0.33659E-04  7309   0.626E-02    0.247E-01
RMM:  46    -0.164839141649E+03    0.23383E-03   -0.41673E-04  7312   0.500E-02    0.154E-01
RMM:  47    -0.164839259785E+03   -0.11814E-03   -0.32760E-04  7365   0.385E-02    0.853E-02
RMM:  48    -0.164839370973E+03   -0.11119E-03   -0.10488E-04  8073   0.256E-02    0.692E-02
RMM:  49    -0.164839413518E+03   -0.42544E-04   -0.49725E-05  7798   0.153E-02    0.631E-02
RMM:  50    -0.164839475655E+03   -0.62138E-04   -0.78571E-05  7317   0.175E-02    0.505E-02
RMM:  51    -0.164839538645E+03   -0.62990E-04   -0.16525E-04  7295   0.261E-02    0.348E-02
RMM:  52    -0.164839577201E+03   -0.38556E-04   -0.58246E-05  8481   0.149E-02    0.346E-02
RMM:  53    -0.164839603918E+03   -0.26718E-04   -0.33246E-05  7869   0.107E-02    0.305E-02
RMM:  54    -0.164839636585E+03   -0.32667E-04   -0.54520E-05  7361   0.148E-02    0.288E-02
RMM:  55    -0.164839671690E+03   -0.35105E-04   -0.10611E-04  7277   0.212E-02    0.235E-02
RMM:  56    -0.164839702483E+03   -0.30793E-04   -0.12422E-04  7404   0.227E-02    0.234E-02
RMM:  57    -0.164839735427E+03   -0.32944E-04   -0.61171E-05  8636   0.154E-02    0.308E-02
RMM:  58    -0.164839751851E+03   -0.16424E-04   -0.19707E-05  8811   0.855E-03    0.307E-02
RMM:  59    -0.164839758088E+03   -0.62370E-05   -0.69844E-06  8566   0.478E-03    0.321E-02
RMM:  60    -0.164839745048E+03    0.13041E-04   -0.82590E-06  7182   0.809E-03    0.344E-02
RMM:  61    -0.164839761403E+03   -0.16356E-04   -0.42751E-05  7234   0.172E-02    0.273E-02
RMM:  62    -0.164839768119E+03   -0.67160E-05   -0.79502E-05  7295   0.191E-02    0.216E-02
RMM:  63    -0.164839794499E+03   -0.26380E-04   -0.44642E-05  7713   0.138E-02    0.150E-02
RMM:  64    -0.164839805826E+03   -0.11326E-04   -0.33294E-05  7553   0.111E-02    0.121E-02
RMM:  65    -0.164839809220E+03   -0.33946E-05   -0.38174E-05  7166   0.122E-02    0.988E-03
RMM:  66    -0.164839820222E+03   -0.11002E-04   -0.15514E-05  8028   0.847E-03    0.598E-03
RMM:  67    -0.164839822570E+03   -0.23474E-05   -0.75008E-06  8305   0.474E-03    0.712E-03
RMM:  68    -0.164839822798E+03   -0.22832E-06   -0.42910E-06  7232   0.397E-03    0.504E-03
RMM:  69    -0.164839823640E+03   -0.84233E-06   -0.11006E-06  6755   0.309E-03    0.237E-03
RMM:  70    -0.164839823649E+03   -0.90222E-08   -0.10051E-06  6524   0.210E-03    0.153E-03
RMM:  71    -0.164839823869E+03   -0.22024E-06   -0.17439E-07  4498   0.119E-03    0.117E-03
RMM:  72    -0.164839823806E+03    0.63101E-07   -0.37947E-07  5183   0.123E-03
   2 F= -.16483982E+03 E0= -.16484241E+03  d E =0.367468E+02  mag=     0.0450
 trial-energy change:   36.746770  1 .order   16.462118  -98.767340  131.691576
 step:   0.3147(harm=  0.4286)  dis= 0.08000  next Energy=  -216.494472 (dE=-0.149E+02)
 bond charge predicted
       N       E                     dE             d eps       ncg     rms          rms(c)
DAV:   1    -0.345718223927E+03   -0.18088E+03   -0.68023E+03  7336   0.277E+02    0.146E+02
RMM:   2    -0.243124881765E+03    0.10259E+03   -0.47114E+02  7296   0.616E+01    0.569E+01
RMM:   3    -0.225274333779E+03    0.17851E+02   -0.64683E+01  7434   0.238E+01    0.381E+01
RMM:   4    -0.225583652917E+03   -0.30932E+00   -0.24323E+01  7386   0.131E+01    0.572E+01
RMM:   5    -0.216307495875E+03    0.92762E+01   -0.43062E+00  7676   0.514E+00    0.219E+01
RMM:   6    -0.214574495094E+03    0.17330E+01   -0.61643E+00  7736   0.549E+00    0.166E+01
RMM:   7    -0.213723312847E+03    0.85118E+00   -0.19259E+00  7949   0.340E+00    0.113E+01
RMM:   8    -0.214123705442E+03   -0.40039E+00   -0.14106E+00  8068   0.275E+00    0.119E+01
RMM:   9    -0.213493496670E+03    0.63021E+00   -0.71628E-01  8067   0.204E+00    0.830E+00
RMM:  10    -0.213258561099E+03    0.23494E+00   -0.29602E-01  8298   0.123E+00    0.511E+00
RMM:  11    -0.213284601906E+03   -0.26041E-01   -0.22684E-01  8803   0.102E+00    0.492E+00
RMM:  12    -0.213258193246E+03    0.26409E-01   -0.14030E-01  8801   0.829E-01    0.306E+00
RMM:  13    -0.213233103408E+03    0.25090E-01   -0.51193E-02  8567   0.518E-01    0.239E+00
RMM:  14    -0.213219239605E+03    0.13864E-01   -0.32971E-02  9019   0.386E-01    0.139E+00
RMM:  15    -0.213220125099E+03   -0.88549E-03   -0.12410E-02  9763   0.231E-01    0.125E+00
RMM:  16    -0.213218463334E+03    0.16618E-02   -0.58686E-03  9899   0.153E-01    0.911E-01
RMM:  17    -0.213218097347E+03    0.36599E-03   -0.29098E-03  9741   0.110E-01    0.621E-01
RMM:  18    -0.213218103343E+03   -0.59962E-05   -0.11865E-03  9888   0.661E-02    0.546E-01
RMM:  19    -0.213218521916E+03   -0.41857E-03   -0.66059E-04  9602   0.447E-02    0.467E-01
WARNING in EDDRMM: call to ZHEGV failed, returncode =   6  3 14
RMM:  20    -0.213218685321E+03   -0.16341E-03   -0.23663E-04 10899   0.212E-02    0.451E-01
RMM:  21    -0.213218149017E+03    0.53630E-03   -0.34869E-04  8612   0.334E-02    0.486E-01
RMM:  22    -0.213217174862E+03    0.97416E-03   -0.19931E-03  7337   0.829E-02    0.524E-01
RMM:  23    -0.213217029478E+03    0.14538E-03   -0.71786E-04  7569   0.485E-02    0.503E-01
RMM:  24    -0.213216802029E+03    0.22745E-03   -0.45750E-04  7353   0.449E-02    0.357E-01
RMM:  25    -0.213216777011E+03    0.25018E-04   -0.19307E-04  7583   0.281E-02    0.265E-01
RMM:  26    -0.213216886383E+03   -0.10937E-03   -0.16423E-04  7445   0.257E-02    0.227E-01
RMM:  27    -0.213216832849E+03    0.53534E-04   -0.26789E-05  7925   0.111E-02    0.239E-01
RMM:  28    -0.213216875946E+03   -0.43096E-04   -0.86251E-06  8651   0.522E-03    0.239E-01
RMM:  29    -0.213216474959E+03    0.40099E-03   -0.10481E-03  7296   0.546E-02    0.221E-01
RMM:  30    -0.213216156088E+03    0.31887E-03   -0.90275E-04  7296   0.523E-02    0.148E-01
RMM:  31    -0.213216142085E+03    0.14003E-04   -0.63992E-05  8563   0.146E-02    0.109E-01
RMM:  32    -0.213216154152E+03   -0.12067E-04   -0.55373E-05  7415   0.138E-02    0.999E-02
RMM:  33    -0.213216147798E+03    0.63538E-05   -0.46083E-05  7428   0.125E-02    0.723E-02
RMM:  34    -0.213216159923E+03   -0.12124E-04   -0.13544E-05  7458   0.744E-03    0.721E-02
RMM:  35    -0.213216166068E+03   -0.61450E-05   -0.61562E-05  7296   0.137E-02    0.451E-02
RMM:  36    -0.213216171194E+03   -0.51257E-05   -0.16139E-05  7293   0.755E-03    0.432E-02
RMM:  37    -0.213216184584E+03   -0.13391E-04   -0.28917E-05  7297   0.981E-03    0.300E-02
RMM:  38    -0.213216191031E+03   -0.64464E-05   -0.20425E-05  7315   0.817E-03    0.165E-02
RMM:  39    -0.213216192523E+03   -0.14922E-05   -0.34037E-06  7704   0.321E-03    0.154E-02
RMM:  40    -0.213216192339E+03    0.18423E-06   -0.49252E-07  5213   0.119E-03    0.158E-02
RMM:  41    -0.213216194318E+03   -0.19797E-05   -0.16924E-06  6602   0.250E-03    0.139E-02
RMM:  42    -0.213216197378E+03   -0.30596E-05   -0.41998E-06  7224   0.386E-03    0.114E-02
RMM:  43    -0.213216199893E+03   -0.25151E-05   -0.40422E-06  7280   0.388E-03    0.110E-02
RMM:  44    -0.213216203506E+03   -0.36134E-05   -0.89348E-06  7296   0.580E-03    0.114E-02
RMM:  45    -0.213216207423E+03   -0.39165E-05   -0.14015E-05  7296   0.775E-03    0.125E-02
RMM:  46    -0.213216210109E+03   -0.26865E-05   -0.13961E-05  7274   0.727E-03    0.924E-03
RMM:  47    -0.213216212069E+03   -0.19592E-05   -0.11119E-05  7328   0.689E-03    0.471E-03
RMM:  48    -0.213216213319E+03   -0.12504E-05   -0.10141E-05  7332   0.691E-03    0.427E-03
RMM:  49    -0.213216214066E+03   -0.74690E-06   -0.81737E-06  7424   0.633E-03    0.391E-03
RMM:  50    -0.213216215045E+03   -0.97958E-06   -0.14874E-06  7281   0.308E-03    0.445E-03
RMM:  51    -0.213216215222E+03   -0.17662E-06   -0.95905E-07  6440   0.201E-03    0.401E-03
RMM:  52    -0.213216215330E+03   -0.10816E-06   -0.57098E-07  5615   0.171E-03    0.317E-03
RMM:  53    -0.213216215399E+03   -0.68809E-07   -0.26152E-07  4715   0.126E-03
   3 F= -.21321622E+03 E0= -.21321685E+03  d E =-.116296E+02  mag=    -0.0022
 curvature:  -0.21 expect dE=-0.194E+01 dE for cont linesearch -0.583E+00
 ZBRENT: interpolating
 opt :   0.2691  next Energy=  -213.597469 (dE=-0.120E+02)
 bond charge predicted
       N       E                     dE             d eps       ncg     rms          rms(c)
DAV:   1    -0.214283022763E+03   -0.10668E+01   -0.32896E+01  7640   0.197E+01    0.741E+00
RMM:   2    -0.213874621367E+03    0.40840E+00   -0.16713E+00  7434   0.385E+00    0.640E+00
RMM:   3    -0.213751849722E+03    0.12277E+00   -0.18725E-01  7467   0.130E+00    0.363E+00
RMM:   4    -0.213903269596E+03   -0.15142E+00   -0.23955E-01  7316   0.132E+00    0.562E+00
RMM:   5    -0.213792091245E+03    0.11118E+00   -0.13231E-01  7438   0.955E-01    0.402E+00
RMM:   6    -0.213715577780E+03    0.76513E-01   -0.51480E-02  7420   0.611E-01    0.242E+00
RMM:   7    -0.213691388473E+03    0.24189E-01   -0.19141E-02  7478   0.355E-01    0.149E+00
RMM:   8    -0.213684274074E+03    0.71144E-02   -0.11477E-02  7483   0.269E-01    0.115E+00
RMM:   9    -0.213677663628E+03    0.66104E-02   -0.56727E-03  7456   0.204E-01    0.398E-01
RMM:  10    -0.213677502405E+03    0.16122E-03   -0.18522E-03  7777   0.109E-01    0.320E-01
RMM:  11    -0.213677216596E+03    0.28581E-03   -0.78332E-04  8343   0.635E-02    0.235E-01
RMM:  12    -0.213676971765E+03    0.24483E-03   -0.41727E-04  8334   0.465E-02    0.107E-01
RMM:  13    -0.213676937174E+03    0.34591E-04   -0.15601E-04  9228   0.269E-02    0.677E-02
RMM:  14    -0.213676919617E+03    0.17557E-04   -0.57019E-05  9584   0.157E-02    0.362E-02
RMM:  15    -0.213676920094E+03   -0.47715E-06   -0.20783E-05  9636   0.880E-03    0.308E-02
RMM:  16    -0.213676919252E+03    0.84200E-06   -0.94807E-06  9111   0.606E-03    0.202E-02
RMM:  17    -0.213676924772E+03   -0.55202E-05   -0.73745E-06  8571   0.551E-03    0.164E-02
RMM:  18    -0.213676928928E+03   -0.41555E-05   -0.25887E-06  8224   0.298E-03    0.159E-02
RMM:  19    -0.213676922133E+03    0.67945E-05   -0.37512E-06  8047   0.357E-03    0.137E-02
RMM:  20    -0.213676916329E+03    0.58042E-05   -0.87570E-06  7423   0.532E-03    0.760E-03
RMM:  21    -0.213676916063E+03    0.26602E-06   -0.18688E-06  7602   0.263E-03    0.365E-03
RMM:  22    -0.213676916077E+03   -0.14174E-07   -0.21459E-07  5076   0.118E-03
   4 F= -.21367692E+03 E0= -.21367763E+03  d E =-.120903E+02  mag=    -0.0006
 curvature:  -0.13 expect dE=-0.737E+00 dE for cont linesearch -0.266E-01
 ZBRENT: interpolating
 opt :   0.2534  next Energy=  -213.713054 (dE=-0.121E+02)
 bond charge predicted
       N       E                     dE             d eps       ncg     rms          rms(c)
DAV:   1    -0.213780554585E+03   -0.10364E+00   -0.39007E+00  7888   0.682E+00    0.258E+00
RMM:   2    -0.213734998056E+03    0.45557E-01   -0.19339E-01  7442   0.132E+00    0.229E+00
RMM:   3    -0.213721744602E+03    0.13253E-01   -0.23658E-02  7454   0.464E-01    0.148E+00
RMM:   4    -0.213749684923E+03   -0.27940E-01   -0.28941E-02  7324   0.441E-01    0.246E+00
RMM:   5    -0.213725520803E+03    0.24164E-01   -0.21672E-02  7396   0.394E-01    0.146E+00
RMM:   6    -0.213715609110E+03    0.99117E-02   -0.76229E-03  7424   0.241E-01    0.909E-01
RMM:   7    -0.213712646821E+03    0.29623E-02   -0.35007E-03  7529   0.150E-01    0.637E-01
RMM:   8    -0.213711334396E+03    0.13124E-02   -0.21674E-03  7478   0.118E-01    0.387E-01
RMM:   9    -0.213710357001E+03    0.97740E-03   -0.73749E-04  7454   0.732E-02    0.125E-01
RMM:  10    -0.213710399787E+03   -0.42787E-04   -0.30011E-04  7690   0.423E-02    0.138E-01
RMM:  11    -0.213710282694E+03    0.11709E-03   -0.11378E-04  7925   0.252E-02    0.546E-02
RMM:  12    -0.213710276487E+03    0.62072E-05   -0.32211E-05  8834   0.129E-02    0.383E-02
RMM:  13    -0.213710274043E+03    0.24439E-05   -0.15268E-05  9315   0.807E-03    0.200E-02
RMM:  14    -0.213710279288E+03   -0.52447E-05   -0.79892E-06  9012   0.625E-03    0.142E-02
RMM:  15    -0.213710283379E+03   -0.40917E-05   -0.37612E-06  8558   0.398E-03    0.144E-02
RMM:  16    -0.213710285400E+03   -0.20212E-05   -0.11298E-06  6896   0.182E-03    0.146E-02
RMM:  17    -0.213710280317E+03    0.50835E-05   -0.28115E-06  7553   0.302E-03    0.121E-02
RMM:  18    -0.213710275468E+03    0.48490E-05   -0.71045E-06  7227   0.477E-03    0.579E-03
RMM:  19    -0.213710275352E+03    0.11578E-06   -0.85403E-07  5938   0.201E-03    0.374E-03
RMM:  20    -0.213710275475E+03   -0.12271E-06   -0.17402E-07  4722   0.124E-03    0.296E-03
RMM:  21    -0.213710275611E+03   -0.13625E-06   -0.67442E-08  4452   0.882E-04    0.142E-03
RMM:  22    -0.213710275630E+03   -0.18430E-07   -0.48070E-08  4412   0.529E-04
   5 F= -.21371028E+03 E0= -.21371056E+03  d E =-.121237E+02  mag=    -0.0005
 curvature:  -0.18 expect dE=-0.887E+00 dE for cont linesearch -0.646E-05
 trial: gam= 0.04857 g(F)=  0.227E+01 g(S)=  0.259E+01 ort = 0.591E-01 (trialstep = 0.851E+00)
 search vector abs. value=  0.510E+01
 bond charge predicted
       N       E                     dE             d eps       ncg     rms          rms(c)
DAV:   1    -0.219487191033E+03   -0.57769E+01   -0.56806E+02  7296   0.717E+01    0.146E+01
RMM:   2    -0.218252269146E+03    0.12349E+01   -0.22477E+01  7296   0.137E+01    0.115E+01
RMM:   3    -0.218164483759E+03    0.87785E-01   -0.26036E+00  7515   0.475E+00    0.120E+01
RMM:   4    -0.217076463460E+03    0.10880E+01   -0.11599E+00  7479   0.275E+00    0.658E+00
RMM:   5    -0.216831993120E+03    0.24447E+00   -0.50669E-01  7577   0.175E+00    0.530E+00
RMM:   6    -0.216808158348E+03    0.23835E-01   -0.23011E-01  7751   0.116E+00    0.477E+00
RMM:   7    -0.216709873634E+03    0.98285E-01   -0.88787E-02  7776   0.701E-01    0.258E+00
RMM:   8    -0.216720474950E+03   -0.10601E-01   -0.46386E-02  7823   0.512E-01    0.253E+00
RMM:   9    -0.216686562095E+03    0.33913E-01   -0.24318E-02  7697   0.374E-01    0.110E+00
RMM:  10    -0.216682397426E+03    0.41647E-02   -0.97765E-03  7625   0.245E-01    0.829E-01
RMM:  11    -0.216679588781E+03    0.28086E-02   -0.29784E-03  8470   0.119E-01    0.361E-01
RMM:  12    -0.216679382326E+03    0.20645E-03   -0.13032E-03  8250   0.851E-02    0.328E-01
RMM:  13    -0.216679084939E+03    0.29739E-03   -0.47204E-04  8389   0.451E-02    0.108E-01
RMM:  14    -0.216679119104E+03   -0.34165E-04   -0.21084E-04  8225   0.312E-02    0.102E-01
RMM:  15    -0.216679057801E+03    0.61302E-04   -0.83288E-05  8586   0.182E-02    0.411E-02
RMM:  16    -0.216679061643E+03   -0.38418E-05   -0.30745E-05  8986   0.101E-02    0.298E-02
RMM:  17    -0.216679062899E+03   -0.12558E-05   -0.13161E-05  9057   0.601E-03    0.216E-02
WARNING in EDDRMM: call to ZHEGV failed, returncode =   6  3 13
WARNING in EDDRMM: call to ZHEGV failed, returncode =   8  4 16
RMM:  18    -0.216679067055E+03   -0.41561E-05   -0.58214E-06  8327   0.322E-03    0.235E-02
RMM:  19    -0.216679059484E+03    0.75707E-05   -0.92609E-06  8071   0.526E-03    0.130E-02
RMM:  20    -0.216679061231E+03   -0.17464E-05   -0.31107E-06  7803   0.299E-03    0.109E-02
 num prob  num prob  num prob  num prob  num prob  num prob  num prob  num prob  num prob  num prob  num prob  num prob  num prob  num prob  num prob  num prob  num prob  num prob  num prob  num prob  num prob  num prob  num prob  num prob  num prob  num prob  num prob  num prob  num prob  num prob RMM:  21    -0.216679060748E+03    0.48242E-06   -0.49025E-07  5099   0.115E-03    0.107E-02
RMM:  22    -0.216679059065E+03    0.16830E-05   -0.13952E-06  6601   0.207E-03    0.828E-03
RMM:  23    -0.216679057983E+03    0.10818E-05   -0.27315E-06  7291   0.306E-03    0.384E-03
RMM:  24    -0.216679057966E+03    0.17193E-07   -0.44266E-07  5596   0.118E-03
   6 F= -.21667906E+03 E0= -.21668306E+03  d E =-.296878E+01  mag=    -0.0001
 trial-energy change:   -2.968782  1 .order   -2.964749   -4.133761   -1.795737
 step:   1.5041(harm=  1.5041)  dis= 0.24852  next Energy=  -217.364640 (dE=-0.365E+01)
 bond charge predicted
       N       E                     dE             d eps       ncg     rms          rms(c)
DAV:   1    -0.219127039977E+03   -0.24480E+01   -0.34468E+02  7296   0.561E+01    0.119E+01
RMM:   2    -0.218149846810E+03    0.97719E+00   -0.12710E+01  7318   0.106E+01    0.892E+00
RMM:   3    -0.218105060336E+03    0.44786E-01   -0.15859E+00  7466   0.373E+00    0.104E+01
RMM:   4    -0.217392289340E+03    0.71277E+00   -0.71790E-01  7434   0.218E+00    0.472E+00
RMM:   5    -0.217364809131E+03    0.27480E-01   -0.29118E-01  7601   0.137E+00    0.404E+00
RMM:   6    -0.217275765430E+03    0.89044E-01   -0.96290E-02  7689   0.758E-01    0.215E+00
RMM:   7    -0.217277623910E+03   -0.18585E-02   -0.52394E-02  7715   0.557E-01    0.205E+00
RMM:   8    -0.217261411060E+03    0.16213E-01   -0.20061E-02  7727   0.339E-01    0.129E+00
RMM:   9    -0.217253146848E+03    0.82642E-02   -0.82824E-03  8057   0.211E-01    0.653E-01
RMM:  10    -0.217251917530E+03    0.12293E-02   -0.29514E-03  8383   0.124E-01    0.336E-01
RMM:  11    -0.217251658174E+03    0.25936E-03   -0.14267E-03  8207   0.846E-02    0.226E-01
RMM:  12    -0.217251420414E+03    0.23776E-03   -0.48636E-04  8506   0.499E-02    0.933E-02
RMM:  13    -0.217251394842E+03    0.25572E-04   -0.19000E-04  9053   0.286E-02    0.472E-02
RMM:  14    -0.217251388305E+03    0.65375E-05   -0.60539E-05  9881   0.143E-02    0.233E-02
RMM:  15    -0.217251390328E+03   -0.20236E-05   -0.21822E-05 10621   0.728E-03    0.134E-02
RMM:  16    -0.217251392037E+03   -0.17087E-05   -0.10022E-05 10098   0.503E-03    0.856E-03
RMM:  17    -0.217251392562E+03   -0.52535E-06   -0.46564E-06  9194   0.312E-03    0.378E-03
 num prob  num prob  num prob  num prob  num prob  num prob  num prob  num prob  num prob  num prob  num prob  num prob  num prob RMM:  18    -0.217251392639E+03   -0.76994E-07   -0.19656E-06  6964   0.182E-03    0.214E-03
RMM:  19    -0.217251392685E+03   -0.45846E-07   -0.12149E-06  6139   0.155E-03    0.930E-04
 num prob  num prob  num prob  num prob  num prob  num prob  num prob  num prob  num prob  num prob  num prob  num prob  num prob  num prob  num prob  num prob  num prob  num prob  num prob  num prob  num prob  num prob  num prob  num prob  num prob  num prob  num prob  num prob  num prob  num prob  num prob  num prob  num prob  num prob  num prob RMM:  20    -0.217251392739E+03   -0.54129E-07   -0.41414E-07  4998   0.107E-03
   7 F= -.21725139E+03 E0= -.21725664E+03  d E =-.354112E+01  mag=    -0.0000
 curvature:  -0.79 expect dE=-0.494E+01 dE for cont linesearch -0.329E-01
 trial: gam= 1.40722 g(F)=  0.504E+01 g(S)=  0.123E+01 ort =-0.461E+00 (trialstep = 0.332E+00)
 search vector abs. value=  0.151E+02
 bond charge predicted
       N       E                     dE             d eps       ncg     rms          rms(c)
DAV:   1    -0.218697310527E+03   -0.14459E+01   -0.27156E+02  7296   0.477E+01    0.848E+00
RMM:   2    -0.219008578168E+03   -0.31127E+00   -0.10044E+01  7302   0.956E+00    0.677E+00
RMM:   3    -0.218926732600E+03    0.81846E-01   -0.91690E-01  7476   0.294E+00    0.678E+00
RMM:   4    -0.218711051690E+03    0.21568E+00   -0.28856E-01  7578   0.134E+00    0.422E+00
RMM:   5    -0.218650584671E+03    0.60467E-01   -0.16402E-01  7560   0.971E-01    0.251E+00
RMM:   6    -0.218626441113E+03    0.24144E-01   -0.70357E-02  7638   0.633E-01    0.196E+00
RMM:   7    -0.218611240136E+03    0.15201E-01   -0.27405E-02  7714   0.399E-01    0.113E+00
RMM:   8    -0.218606932184E+03    0.43080E-02   -0.10674E-02  7792   0.251E-01    0.798E-01
RMM:   9    -0.218604414288E+03    0.25179E-02   -0.43976E-03  8042   0.148E-01    0.453E-01
RMM:  10    -0.218604132627E+03    0.28166E-03   -0.20409E-03  7841   0.103E-01    0.349E-01
RMM:  11    -0.218603473163E+03    0.65946E-03   -0.80733E-04  7781   0.629E-02    0.146E-01
RMM:  12    -0.218603394771E+03    0.78392E-04   -0.30218E-04  8228   0.370E-02    0.661E-02
RMM:  13    -0.218603389931E+03    0.48400E-05   -0.13208E-04  8771   0.228E-02    0.443E-02
RMM:  14    -0.218603385748E+03    0.41827E-05   -0.46755E-05  9360   0.116E-02    0.169E-02
RMM:  15    -0.218603386273E+03   -0.52493E-06   -0.20260E-05 10160   0.639E-03    0.102E-02
RMM:  16    -0.218603387019E+03   -0.74628E-06   -0.90362E-06  9334   0.359E-03    0.599E-03
 num prob  num prob  num prob  num prob RMM:  17    -0.218603387373E+03   -0.35409E-06   -0.43706E-06  7969   0.260E-03    0.216E-03
 num prob  num prob  num prob  num prob  num prob  num prob WARNING in EDDRMM: call to ZHEGV failed, returncode =   6  3 16
 num prob  num prob  num prob  num prob  num prob  num prob  num prob  num prob  num prob  num prob  num prob WARNING in EDDRMM: call to ZHEGV failed, returncode =   8  4 16
 num prob  num prob  num prob  num prob  num prob RMM:  18    -0.218603387467E+03   -0.93121E-07   -0.19229E-06  5656   0.166E-03    0.943E-04
 num prob  num prob  num prob  num prob  num prob  num prob  num prob  num prob RMM:  19    -0.218603387596E+03   -0.12907E-06   -0.12224E-06  5673   0.139E-03    0.817E-04
 num prob  num prob  num prob  num prob  num prob  num prob  num prob  num prob  num prob  num prob  num prob  num prob  num prob  num prob  num prob  num prob  num prob  num prob  num prob  num prob  num prob  num prob  num prob  num prob  num prob  num prob  num prob  num prob  num prob  num prob  num prob  num prob RMM:  20    -0.218603387651E+03   -0.55879E-07   -0.48792E-07  5033   0.105E-03
   8 F= -.21860339E+03 E0= -.21860739E+03  d E =-.135199E+01  mag=    -0.0000
 trial-energy change:   -1.351995  1 .order   -1.353425   -1.865998   -0.840851
 step:   0.6043(harm=  0.6043)  dis= 0.21260  next Energy=  -218.949661 (dE=-0.170E+01)
 bond charge predicted
       N       E                     dE             d eps       ncg     rms          rms(c)
DAV:   1    -0.219066994774E+03   -0.46361E+00   -0.18442E+02  7296   0.393E+01    0.759E+00
RMM:   2    -0.219194651732E+03   -0.12766E+00   -0.65739E+00  7296   0.774E+00    0.561E+00
RMM:   3    -0.219208155986E+03   -0.13504E-01   -0.67026E-01  7391   0.251E+00    0.629E+00
RMM:   4    -0.219011110687E+03    0.19705E+00   -0.22750E-01  7548   0.120E+00    0.350E+00
RMM:   5    -0.218959524633E+03    0.51586E-01   -0.11919E-01  7580   0.843E-01    0.210E+00
RMM:   6    -0.218943509023E+03    0.16016E-01   -0.47311E-02  7676   0.516E-01    0.146E+00
RMM:   7    -0.218931758924E+03    0.11750E-01   -0.16249E-02  7660   0.307E-01    0.757E-01
RMM:   8    -0.218930445672E+03    0.13133E-02   -0.67114E-03  7772   0.196E-01    0.632E-01
RMM:   9    -0.218929046467E+03    0.13992E-02   -0.24065E-03  8491   0.108E-01    0.330E-01
RMM:  10    -0.218928686823E+03    0.35964E-03   -0.99964E-04  8317   0.689E-02    0.206E-01
RMM:  11    -0.218928581839E+03    0.10498E-03   -0.49653E-04  8066   0.490E-02    0.118E-01
RMM:  12    -0.218928523268E+03    0.58571E-04   -0.21069E-04  8255   0.310E-02    0.440E-02
RMM:  13    -0.218928515061E+03    0.82073E-05   -0.72643E-05  9134   0.162E-02    0.228E-02
RMM:  14    -0.218928515428E+03   -0.36652E-06   -0.28362E-05 10141   0.843E-03    0.137E-02
RMM:  15    -0.218928516718E+03   -0.12908E-05   -0.13333E-05  9458   0.550E-03    0.959E-03
RMM:  16    -0.218928516812E+03   -0.94034E-07   -0.63205E-06  8862   0.329E-03    0.360E-03
 num prob  num prob  num prob  num prob  num prob  num prob  num prob  num prob  num prob  num prob  num prob  num prob  num prob  num prob  num prob  num prob  num prob  num prob  num prob  num prob  num prob  num prob  num prob  num prob  num prob  num prob  num prob  num prob  num prob  num prob  num prob  num prob  num prob  num prob  num prob  num prob  num prob  num prob  num prob  num prob RMM:  17    -0.218928516942E+03   -0.12996E-06   -0.24693E-06  5857   0.187E-03    0.226E-03
 num prob  num prob  num prob  num prob  num prob  num prob RMM:  18    -0.218928517004E+03   -0.61802E-07   -0.16343E-06  6023   0.173E-03    0.888E-04
 num prob  num prob  num prob  num prob  num prob  num prob  num prob  num prob  num prob  num prob  num prob  num prob  num prob  num prob  num prob  num prob  num prob  num prob  num prob  num prob  num prob  num prob  num prob  num prob  num prob  num prob  num prob  num prob  num prob  num prob  num prob  num prob  num prob  num prob  num prob  num prob  num prob  num prob  num prob  num prob  num prob  num prob  num prob  num prob  num prob  num prob  num prob  num prob  num prob RMM:  19    -0.218928517057E+03   -0.52496E-07   -0.57021E-07  5084   0.121E-03
   9 F= -.21892852E+03 E0= -.21893128E+03  d E =-.167712E+01  mag=    -0.0000
 curvature:  -0.81 expect dE=-0.235E+01 dE for cont linesearch -0.160E-02
 trial: gam= 0.13311 g(F)=  0.191E+01 g(S)=  0.990E+00 ort =-0.173E+00 (trialstep = 0.386E+00)
 search vector abs. value=  0.312E+01
 bond charge predicted
       N       E                     dE             d eps       ncg     rms          rms(c)
DAV:   1    -0.219690235596E+03   -0.76172E+00   -0.84993E+01  7440   0.251E+01    0.458E+00
RMM:   2    -0.219786923041E+03   -0.96687E-01   -0.26066E+00  7296   0.555E+00    0.306E+00
RMM:   3    -0.219775022911E+03    0.11900E-01   -0.28157E-01  7621   0.151E+00    0.339E+00
RMM:   4    -0.219726309906E+03    0.48713E-01   -0.71464E-02  7515   0.662E-01    0.216E+00
RMM:   5    -0.219710577298E+03    0.15733E-01   -0.38420E-02  7555   0.471E-01    0.168E+00
RMM:   6    -0.219697992586E+03    0.12585E-01   -0.27575E-02  7416   0.422E-01    0.896E-01
RMM:   7    -0.219692481189E+03    0.55114E-02   -0.74607E-03  7619   0.216E-01    0.454E-01
RMM:   8    -0.219691519247E+03    0.96194E-03   -0.19132E-03  7968   0.995E-02    0.335E-01
RMM:   9    -0.219691028828E+03    0.49042E-03   -0.53044E-04  8557   0.507E-02    0.155E-01
RMM:  10    -0.219690973558E+03    0.55269E-04   -0.24911E-04  8563   0.340E-02    0.128E-01
RMM:  11    -0.219690919233E+03    0.54326E-04   -0.15319E-04  8249   0.276E-02    0.558E-02
RMM:  12    -0.219690905059E+03    0.14174E-04   -0.49606E-05  8674   0.161E-02    0.240E-02
RMM:  13    -0.219690902317E+03    0.27414E-05   -0.13483E-05  9786   0.730E-03    0.133E-02
RMM:  14    -0.219690902908E+03   -0.59060E-06   -0.46897E-06  9571   0.395E-03    0.971E-03
RMM:  15    -0.219690902878E+03    0.29973E-07   -0.19267E-06  8095   0.239E-03    0.397E-03
 num prob  num prob  num prob  num prob  num prob  num prob  num prob  num prob  num prob RMM:  16    -0.219690902872E+03    0.65047E-08   -0.67931E-07  6232   0.150E-03
  10 F= -.21969090E+03 E0= -.21969325E+03  d E =-.762386E+00  mag=    -0.0000
 trial-energy change:   -0.762386  1 .order   -0.761962   -1.112195   -0.411730
 step:   0.6136(harm=  0.6136)  dis= 0.06117  next Energy=  -219.811486 (dE=-0.883E+00)
 bond charge predicted
       N       E                     dE             d eps       ncg     rms          rms(c)
DAV:   1    -0.219817285838E+03   -0.12638E+00   -0.29340E+01  7456   0.147E+01    0.280E+00
RMM:   2    -0.219848882460E+03   -0.31597E-01   -0.87118E-01  7296   0.321E+00    0.190E+00
RMM:   3    -0.219851174585E+03   -0.22921E-02   -0.10057E-01  7607   0.886E-01    0.226E+00
RMM:   4    -0.219828059138E+03    0.23115E-01   -0.27713E-02  7438   0.415E-01    0.138E+00
RMM:   5    -0.219819600432E+03    0.84587E-02   -0.13772E-02  7500   0.288E-01    0.852E-01
RMM:   6    -0.219817248151E+03    0.23523E-02   -0.87442E-03  7416   0.237E-01    0.603E-01
RMM:   7    -0.219815001511E+03    0.22466E-02   -0.26351E-03  7601   0.127E-01    0.298E-01
RMM:   8    -0.219814592834E+03    0.40868E-03   -0.75736E-04  7927   0.625E-02    0.207E-01
RMM:   9    -0.219814399406E+03    0.19343E-03   -0.21692E-04  8306   0.327E-02    0.996E-02
RMM:  10    -0.219814355884E+03    0.43522E-04   -0.88526E-05  8360   0.208E-02    0.529E-02
RMM:  11    -0.219814352214E+03    0.36701E-05   -0.45111E-05  8577   0.148E-02    0.323E-02
RMM:  12    -0.219814348139E+03    0.40751E-05   -0.14753E-05  8745   0.864E-03    0.123E-02
RMM:  13    -0.219814347675E+03    0.46396E-06   -0.42165E-06  9577   0.390E-03    0.696E-03
 num prob RMM:  14    -0.219814347932E+03   -0.25680E-06   -0.13901E-06  7486   0.202E-03    0.445E-03
 num prob  num prob  num prob  num prob  num prob RMM:  15    -0.219814348003E+03   -0.70835E-07   -0.59960E-07  6376   0.149E-03
  11 F= -.21981435E+03 E0= -.21981664E+03  d E =-.885831E+00  mag=    -0.0000
 curvature:  -0.33 expect dE=-0.219E+00 dE for cont linesearch -0.550E-04
 trial: gam= 0.20500 g(F)=  0.520E+00 g(S)=  0.139E+00 ort = 0.227E-01 (trialstep = 0.432E+00)
 search vector abs. value=  0.799E+00
 bond charge predicted
       N       E                     dE             d eps       ncg     rms          rms(c)
DAV:   1    -0.220032162851E+03   -0.21781E+00   -0.31966E+01  7312   0.169E+01    0.293E+00
RMM:   2    -0.220041190636E+03   -0.90278E-02   -0.95648E-01  7296   0.304E+00    0.203E+00
RMM:   3    -0.220059042822E+03   -0.17852E-01   -0.10466E-01  7395   0.105E+00    0.259E+00
RMM:   4    -0.220024427858E+03    0.34615E-01   -0.39057E-02  7312   0.525E-01    0.143E+00
RMM:   5    -0.220022632037E+03    0.17958E-02   -0.16600E-02  7427   0.333E-01    0.120E+00
RMM:   6    -0.220018358548E+03    0.42735E-02   -0.78207E-03  7506   0.209E-01    0.683E-01
RMM:   7    -0.220017826735E+03    0.53181E-03   -0.49059E-03  7477   0.168E-01    0.583E-01
RMM:   8    -0.220015887458E+03    0.19393E-02   -0.15336E-03  7510   0.983E-02    0.238E-01
RMM:   9    -0.220015522001E+03    0.36546E-03   -0.41712E-04  7926   0.490E-02    0.117E-01
RMM:  10    -0.220015471738E+03    0.50263E-04   -0.11277E-04  8802   0.233E-02    0.666E-02
RMM:  11    -0.220015465728E+03    0.60101E-05   -0.56800E-05  8323   0.165E-02    0.496E-02
RMM:  12    -0.220015452006E+03    0.13722E-04   -0.24397E-05  8822   0.107E-02    0.224E-02
RMM:  13    -0.220015449295E+03    0.27106E-05   -0.67246E-06  9173   0.543E-03    0.134E-02
RMM:  14    -0.220015448786E+03    0.50928E-06   -0.22282E-06  8186   0.252E-03    0.916E-03
RMM:  15    -0.220015448198E+03    0.58822E-06   -0.86769E-07  6793   0.189E-03    0.317E-03
 num prob  num prob RMM:  16    -0.220015448022E+03    0.17582E-06   -0.33367E-07  5457   0.123E-03    0.117E-03
 num prob  num prob  num prob  num prob RMM:  17    -0.220015448046E+03   -0.23938E-07   -0.19099E-07  5084   0.894E-04
  12 F= -.22001545E+03 E0= -.22001769E+03  d E =-.201100E+00  mag=    -0.0000
 trial-energy change:   -0.201100  1 .order   -0.201902   -0.286506   -0.117298
 step:   0.7467(harm=  0.7312)  dis= 0.03877  next Energy=  -220.057897 (dE=-0.244E+00)
 bond charge predicted
       N       E                     dE             d eps       ncg     rms          rms(c)
DAV:   1    -0.220068056325E+03   -0.52608E-01   -0.16963E+01  7296   0.123E+01    0.204E+00
RMM:   2    -0.220072183898E+03   -0.41276E-02   -0.50785E-01  7296   0.221E+00    0.138E+00
RMM:   3    -0.220079343006E+03   -0.71591E-02   -0.53952E-02  7392   0.758E-01    0.182E+00
RMM:   4    -0.220063352058E+03    0.15991E-01   -0.18122E-02  7327   0.357E-01    0.998E-01
RMM:   5    -0.220062903461E+03    0.44860E-03   -0.80778E-03  7508   0.228E-01    0.862E-01
RMM:   6    -0.220060104601E+03    0.27989E-02   -0.39460E-03  7493   0.148E-01    0.403E-01
RMM:   7    -0.220060204057E+03   -0.99456E-04   -0.22633E-03  7506   0.115E-01    0.402E-01
RMM:   8    -0.220059259698E+03    0.94436E-03   -0.75287E-04  7604   0.662E-02    0.164E-01
RMM:   9    -0.220059124430E+03    0.13527E-03   -0.19974E-04  8007   0.342E-02    0.992E-02
RMM:  10    -0.220059079720E+03    0.44710E-04   -0.63442E-05  8671   0.175E-02    0.492E-02
RMM:  11    -0.220059074352E+03    0.53675E-05   -0.28753E-05  8316   0.119E-02    0.326E-02
RMM:  12    -0.220059067841E+03    0.65110E-05   -0.13027E-05  8658   0.782E-03    0.161E-02
RMM:  13    -0.220059066465E+03    0.13762E-05   -0.36087E-06  8858   0.394E-03    0.103E-02
RMM:  14    -0.220059066114E+03    0.35135E-06   -0.11822E-06  7156   0.194E-03    0.751E-03
RMM:  15    -0.220059065662E+03    0.45156E-06   -0.49922E-07  6481   0.159E-03    0.308E-03
RMM:  16    -0.220059065495E+03    0.16697E-06   -0.27670E-07  5550   0.113E-03    0.948E-04
 num prob  num prob  num prob  num prob  num prob  num prob  num prob  num prob  num prob  num prob RMM:  17    -0.220059065488E+03    0.72469E-08   -0.40045E-08  4458   0.745E-04
  13 F= -.22005907E+03 E0= -.22006138E+03  d E =-.244717E+00  mag=     0.0000
 curvature:  -0.44 expect dE=-0.160E+00 dE for cont linesearch -0.221E-04
 trial: gam= 0.56997 g(F)=  0.219E+00 g(S)=  0.146E+00 ort = 0.634E-02 (trialstep = 0.495E+00)
 search vector abs. value=  0.632E+00
 bond charge predicted
       N       E                     dE             d eps       ncg     rms          rms(c)
DAV:   1    -0.220146638912E+03   -0.87573E-01   -0.34943E+01  7296   0.171E+01    0.236E+00
RMM:   2    -0.220223058408E+03   -0.76419E-01   -0.99464E-01  7296   0.316E+00    0.233E+00
RMM:   3    -0.220221900063E+03    0.11583E-02   -0.84347E-02  7935   0.855E-01    0.233E+00
RMM:   4    -0.220196777213E+03    0.25123E-01   -0.19210E-02  7334   0.369E-01    0.103E+00
RMM:   5    -0.220201919410E+03   -0.51422E-02   -0.15157E-02  7390   0.309E-01    0.126E+00
RMM:   6    -0.220194404656E+03    0.75148E-02   -0.84754E-03  7470   0.225E-01    0.543E-01
RMM:   7    -0.220193288055E+03    0.11166E-02   -0.28565E-03  7510   0.138E-01    0.385E-01
RMM:   8    -0.220192462002E+03    0.82605E-03   -0.95519E-04  7968   0.701E-02    0.231E-01
RMM:   9    -0.220192166087E+03    0.29592E-03   -0.30628E-04  7962   0.411E-02    0.103E-01
RMM:  10    -0.220192137759E+03    0.28328E-04   -0.10031E-04  8403   0.238E-02    0.597E-02
RMM:  11    -0.220192140781E+03   -0.30223E-05   -0.50056E-05  8433   0.162E-02    0.364E-02
RMM:  12    -0.220192134481E+03    0.62997E-05   -0.18492E-05  9139   0.922E-03    0.155E-02
RMM:  13    -0.220192133854E+03    0.62701E-06   -0.60395E-06  9940   0.467E-03    0.103E-02
RMM:  14    -0.220192133711E+03    0.14344E-06   -0.20315E-06  8264   0.233E-03    0.568E-03
 num prob  num prob  num prob  num prob  num prob RMM:  15    -0.220192133923E+03   -0.21164E-06   -0.70851E-07  6456   0.156E-03    0.313E-03
RMM:  16    -0.220192134054E+03   -0.13127E-06   -0.42154E-07  5898   0.133E-03    0.102E-03
 num prob  num prob  num prob  num prob  num prob  num prob  num prob  num prob  num prob  num prob  num prob  num prob  num prob  num prob  num prob  num prob  num prob  num prob RMM:  17    -0.220192134057E+03   -0.33178E-08   -0.10279E-07  4740   0.912E-04
  14 F= -.22019213E+03 E0= -.22019483E+03  d E =-.133069E+00  mag=     0.0000
 trial-energy change:   -0.133069  1 .order   -0.132960   -0.182233   -0.083688
 step:   0.9151(harm=  0.9151)  dis= 0.05244  next Energy=  -220.227561 (dE=-0.168E+00)
 bond charge predicted
       N       E                     dE             d eps       ncg     rms          rms(c)
DAV:   1    -0.220193593884E+03   -0.14598E-02   -0.25214E+01  7296   0.146E+01    0.204E+00
RMM:   2    -0.220247301266E+03   -0.53707E-01   -0.71555E-01  7296   0.269E+00    0.194E+00
RMM:   3    -0.220248891479E+03   -0.15902E-02   -0.60603E-02  7929   0.725E-01    0.205E+00
RMM:   4    -0.220230184593E+03    0.18707E-01   -0.13924E-02  7330   0.314E-01    0.918E-01
RMM:   5    -0.220235242233E+03   -0.50576E-02   -0.11608E-02  7401   0.270E-01    0.115E+00
RMM:   6    -0.220228830621E+03    0.64116E-02   -0.64493E-03  7454   0.197E-01    0.515E-01
RMM:   7    -0.220227844234E+03    0.98639E-03   -0.23286E-03  7521   0.123E-01    0.370E-01
RMM:   8    -0.220227049164E+03    0.79507E-03   -0.75073E-04  7816   0.635E-02    0.186E-01
RMM:   9    -0.220226842658E+03    0.20651E-03   -0.23053E-04  7914   0.359E-02    0.886E-02
RMM:  10    -0.220226822128E+03    0.20530E-04   -0.77754E-05  8379   0.203E-02    0.566E-02
RMM:  11    -0.220226822606E+03   -0.47809E-06   -0.38918E-05  8390   0.145E-02    0.341E-02
RMM:  12    -0.220226818858E+03    0.37478E-05   -0.15356E-05  8632   0.876E-03    0.183E-02
RMM:  13    -0.220226816995E+03    0.18624E-05   -0.56334E-06  9322   0.469E-03    0.874E-03
 num prob  num prob RMM:  14    -0.220226816951E+03    0.44241E-07   -0.14332E-06  7298   0.206E-03    0.478E-03
 num prob  num prob  num prob  num prob  num prob  num prob  num prob  num prob RMM:  15    -0.220226817118E+03   -0.16648E-06   -0.36918E-07  5578   0.140E-03    0.245E-03
 num prob  num prob RMM:  16    -0.220226817231E+03   -0.11372E-06   -0.37043E-07  5675   0.122E-03    0.109E-03
 num prob  num prob  num prob  num prob  num prob  num prob  num prob  num prob  num prob  num prob  num prob  num prob RMM:  17    -0.220226817239E+03   -0.79890E-08   -0.60998E-08  4643   0.881E-04
  15 F= -.22022682E+03 E0= -.22022957E+03  d E =-.167752E+00  mag=     0.0000
 curvature:  -0.78 expect dE=-0.155E+00 dE for cont linesearch -0.261E-04
 trial: gam= 0.57640 g(F)=  0.134E+00 g(S)=  0.641E-01 ort =-0.458E-02 (trialstep = 0.579E+00)
 search vector abs. value=  0.403E+00
 bond charge predicted
       N       E                     dE             d eps       ncg     rms          rms(c)
DAV:   1    -0.220257533246E+03   -0.30716E-01   -0.29932E+01  7296   0.160E+01    0.189E+00
RMM:   2    -0.220326900461E+03   -0.69367E-01   -0.79669E-01  7304   0.282E+00    0.176E+00
RMM:   3    -0.220330049450E+03   -0.31490E-02   -0.65435E-02  8176   0.762E-01    0.176E+00
RMM:   4    -0.220314306209E+03    0.15743E-01   -0.15285E-02  7335   0.325E-01    0.876E-01
RMM:   5    -0.220313612015E+03    0.69419E-03   -0.95611E-03  7366   0.253E-01    0.801E-01
RMM:   6    -0.220313214503E+03    0.39751E-03   -0.53371E-03  7544   0.180E-01    0.750E-01
RMM:   7    -0.220310008963E+03    0.32055E-02   -0.21574E-03  7500   0.118E-01    0.244E-01
RMM:   8    -0.220309576163E+03    0.43280E-03   -0.71927E-04  7660   0.629E-02    0.133E-01
RMM:   9    -0.220309430932E+03    0.14523E-03   -0.21579E-04  7590   0.370E-02    0.533E-02
RMM:  10    -0.220309425849E+03    0.50827E-05   -0.79154E-05  8117   0.213E-02    0.452E-02
RMM:  11    -0.220309424616E+03    0.12330E-05   -0.31794E-05  9082   0.120E-02    0.393E-02
RMM:  12    -0.220309417575E+03    0.70411E-05   -0.10524E-05  8659   0.721E-03    0.155E-02
RMM:  13    -0.220309415914E+03    0.16613E-05   -0.41789E-06  9214   0.418E-03    0.779E-03
RMM:  14    -0.220309415572E+03    0.34236E-06   -0.13400E-06  8206   0.227E-03    0.453E-03
RMM:  15    -0.220309415535E+03    0.36471E-07   -0.51867E-07  6274   0.138E-03
  16 F= -.22030942E+03 E0= -.22031266E+03  d E =-.825983E-01  mag=     0.0000
 trial-energy change:   -0.082598  1 .order   -0.082683   -0.113141   -0.052224
 step:   1.0752(harm=  1.0752)  dis= 0.03263  next Energy=  -220.331886 (dE=-0.105E+00)
 bond charge predicted
       N       E                     dE             d eps       ncg     rms          rms(c)
DAV:   1    -0.220294400638E+03    0.15015E-01   -0.22002E+01  7296   0.137E+01    0.161E+00
RMM:   2    -0.220346581985E+03   -0.52181E-01   -0.58515E-01  7304   0.242E+00    0.156E+00
RMM:   3    -0.220346950019E+03   -0.36803E-03   -0.48072E-02  8144   0.654E-01    0.149E+00
RMM:   4    -0.220336997910E+03    0.99521E-02   -0.11185E-02  7351   0.276E-01    0.828E-01
RMM:   5    -0.220335061588E+03    0.19363E-02   -0.69151E-03  7364   0.214E-01    0.672E-01
RMM:   6    -0.220335372511E+03   -0.31092E-03   -0.43229E-03  7546   0.162E-01    0.692E-01
RMM:   7    -0.220332711264E+03    0.26612E-02   -0.17270E-03  7474   0.106E-01    0.233E-01
RMM:   8    -0.220332296213E+03    0.41505E-03   -0.57191E-04  7648   0.572E-02    0.110E-01
RMM:   9    -0.220332193050E+03    0.10316E-03   -0.17578E-04  7565   0.329E-02    0.456E-02
RMM:  10    -0.220332184385E+03    0.86658E-05   -0.60083E-05  8081   0.188E-02    0.287E-02
RMM:  11    -0.220332185134E+03   -0.74894E-06   -0.21668E-05  9473   0.990E-03    0.285E-02
RMM:  12    -0.220332182183E+03    0.29504E-05   -0.71386E-06  9076   0.566E-03    0.162E-02
RMM:  13    -0.220332180566E+03    0.16172E-05   -0.30203E-06  8864   0.364E-03    0.664E-03
RMM:  14    -0.220332180240E+03    0.32586E-06   -0.10014E-06  7751   0.199E-03    0.359E-03
RMM:  15    -0.220332180170E+03    0.69715E-07   -0.34887E-07  5727   0.124E-03
  17 F= -.22033218E+03 E0= -.22033565E+03  d E =-.105363E+00  mag=     0.0000
 curvature:  -1.11 expect dE=-0.200E+00 dE for cont linesearch -0.775E-05
 trial: gam= 0.88648 g(F)=  0.113E+00 g(S)=  0.682E-01 ort = 0.168E-02 (trialstep = 0.546E+00)
 search vector abs. value=  0.500E+00
 bond charge predicted
       N       E                     dE             d eps       ncg     rms          rms(c)
DAV:   1    -0.220374560865E+03   -0.42381E-01   -0.31615E+01  7296   0.165E+01    0.223E+00
RMM:   2    -0.220422208592E+03   -0.47648E-01   -0.96067E-01  7296   0.304E+00    0.173E+00
RMM:   3    -0.220424587889E+03   -0.23793E-02   -0.79029E-02  7748   0.883E-01    0.198E+00
RMM:   4    -0.220410607638E+03    0.13980E-01   -0.21137E-02  7417   0.374E-01    0.132E+00
RMM:   5    -0.220402370717E+03    0.82369E-02   -0.11676E-02  7429   0.279E-01    0.908E-01
RMM:   6    -0.220400635273E+03    0.17354E-02   -0.80933E-03  7450   0.223E-01    0.620E-01
RMM:   7    -0.220398218380E+03    0.24169E-02   -0.30122E-03  7482   0.135E-01    0.356E-01
RMM:   8    -0.220397920822E+03    0.29756E-03   -0.11711E-03  7975   0.796E-02    0.277E-01
RMM:   9    -0.220397580822E+03    0.34000E-03   -0.36640E-04  8274   0.443E-02    0.134E-01
RMM:  10    -0.220397518118E+03    0.62705E-04   -0.13604E-04  9111   0.256E-02    0.895E-02
RMM:  11    -0.220397506421E+03    0.11697E-04   -0.70324E-05  8574   0.196E-02    0.446E-02
RMM:  12    -0.220397507555E+03   -0.11345E-05   -0.34271E-05  8701   0.135E-02    0.289E-02
RMM:  13    -0.220397502153E+03    0.54025E-05   -0.12950E-05  9288   0.784E-03    0.129E-02
RMM:  14    -0.220397501628E+03    0.52433E-06   -0.39173E-06  9711   0.408E-03    0.642E-03
RMM:  15    -0.220397501662E+03   -0.33699E-07   -0.13128E-06  7786   0.207E-03    0.402E-03
 num prob  num prob  num prob  num prob RMM:  16    -0.220397501947E+03   -0.28452E-06   -0.50481E-07  6571   0.154E-03    0.206E-03
RMM:  17    -0.220397502148E+03   -0.20109E-06   -0.30711E-07  5182   0.117E-03    0.659E-04
 num prob  num prob  num prob  num prob  num prob  num prob  num prob  num prob  num prob  num prob  num prob  num prob RMM:  18    -0.220397502134E+03    0.13421E-07   -0.80321E-08  4581   0.849E-04
  18 F= -.22039750E+03 E0= -.22040104E+03  d E =-.653220E-01  mag=     0.0000
 trial-energy change:   -0.065322  1 .order   -0.065313   -0.099540   -0.031087
 step:   0.7936(harm=  0.7936)  dis= 0.03821  next Energy=  -220.404552 (dE=-0.724E-01)
 bond charge predicted
       N       E                     dE             d eps       ncg     rms          rms(c)
DAV:   1    -0.220399832494E+03   -0.23303E-02   -0.65336E+00  7328   0.753E+00    0.101E+00
RMM:   2    -0.220410101217E+03   -0.10269E-01   -0.19465E-01  7296   0.137E+00    0.852E-01
RMM:   3    -0.220410450120E+03   -0.34890E-03   -0.16284E-02  7780   0.400E-01    0.942E-01
RMM:   4    -0.220407180770E+03    0.32693E-02   -0.43750E-03  7412   0.171E-01    0.610E-01
RMM:   5    -0.220405335510E+03    0.18453E-02   -0.25601E-03  7404   0.132E-01    0.415E-01
RMM:   6    -0.220405071817E+03    0.26369E-03   -0.16826E-03  7464   0.102E-01    0.301E-01
RMM:   7    -0.220404626512E+03    0.44530E-03   -0.62160E-04  7488   0.614E-02    0.195E-01
RMM:   8    -0.220404475168E+03    0.15134E-03   -0.25530E-04  7800   0.378E-02    0.108E-01
RMM:   9    -0.220404419193E+03    0.55974E-04   -0.72185E-05  8502   0.196E-02    0.570E-02
RMM:  10    -0.220404410492E+03    0.87015E-05   -0.26377E-05  9119   0.113E-02    0.393E-02
RMM:  11    -0.220404409436E+03    0.10556E-05   -0.14346E-05  8716   0.868E-03    0.160E-02
RMM:  12    -0.220404410181E+03   -0.74449E-06   -0.53927E-06  9074   0.540E-03    0.881E-03
RMM:  13    -0.220404409965E+03    0.21548E-06   -0.17946E-06  8619   0.280E-03    0.480E-03
RMM:  14    -0.220404409926E+03    0.39276E-07   -0.63060E-07  6867   0.160E-03
  19 F= -.22040441E+03 E0= -.22040789E+03  d E =-.722298E-01  mag=    -0.0000
 curvature:  -1.09 expect dE=-0.109E+00 dE for cont linesearch -0.189E-05
 trial: gam= 0.56525 g(F)=  0.719E-01 g(S)=  0.283E-01 ort =-0.931E-03 (trialstep = 0.595E+00)
 search vector abs. value=  0.259E+00
 bond charge predicted
       N       E                     dE             d eps       ncg     rms          rms(c)
DAV:   1    -0.220407296508E+03   -0.28865E-02   -0.19519E+01  7296   0.125E+01    0.154E+00
RMM:   2    -0.220460010992E+03   -0.52714E-01   -0.49724E-01  7296   0.229E+00    0.148E+00
RMM:   3    -0.220458916344E+03    0.10946E-02   -0.44421E-02  8080   0.611E-01    0.127E+00
RMM:   4    -0.220454276403E+03    0.46399E-02   -0.83795E-03  7822   0.223E-01    0.934E-01
RMM:   5    -0.220450562060E+03    0.37143E-02   -0.45615E-03  7592   0.163E-01    0.610E-01
RMM:   6    -0.220450630719E+03   -0.68659E-04   -0.43077E-03  7582   0.162E-01    0.521E-01
RMM:   7    -0.220449156363E+03    0.14744E-02   -0.13301E-03  7732   0.908E-02    0.200E-01
RMM:   8    -0.220448957025E+03    0.19934E-03   -0.37667E-04  7952   0.458E-02    0.150E-01
RMM:   9    -0.220448823327E+03    0.13370E-03   -0.11422E-04  7871   0.252E-02    0.653E-02
RMM:  10    -0.220448793350E+03    0.29976E-04   -0.48125E-05  8028   0.164E-02    0.339E-02
RMM:  11    -0.220448787605E+03    0.57455E-05   -0.34135E-05  8002   0.139E-02    0.209E-02
RMM:  12    -0.220448786138E+03    0.14662E-05   -0.12495E-05  8232   0.821E-03    0.132E-02
RMM:  13    -0.220448784820E+03    0.13186E-05   -0.27905E-06  8342   0.367E-03    0.463E-03
RMM:  14    -0.220448784726E+03    0.94027E-07   -0.11496E-06  7724   0.214E-03    0.320E-03
RMM:  15    -0.220448784657E+03    0.68587E-07   -0.38098E-07  5714   0.133E-03
  20 F= -.22044878E+03 E0= -.22045196E+03  d E =-.443747E-01  mag=    -0.0000
 trial-energy change:   -0.044375  1 .order   -0.044375   -0.059335   -0.029416
 step:   1.1807(harm=  1.1807)  dis= 0.03870  next Energy=  -220.463246 (dE=-0.588E-01)
 bond charge predicted
       N       E                     dE             d eps       ncg     rms          rms(c)
DAV:   1    -0.220423061717E+03    0.25723E-01   -0.18871E+01  7296   0.123E+01    0.152E+00
RMM:   2    -0.220474901865E+03   -0.51840E-01   -0.48076E-01  7296   0.225E+00    0.153E+00
RMM:   3    -0.220474607926E+03    0.29394E-03   -0.43792E-02  8132   0.603E-01    0.137E+00
RMM:   4    -0.220468033323E+03    0.65746E-02   -0.82447E-03  7790   0.224E-01    0.878E-01
RMM:   5    -0.220464863328E+03    0.31700E-02   -0.46723E-03  7594   0.166E-01    0.616E-01
RMM:   6    -0.220465854043E+03   -0.99072E-03   -0.40574E-03  7574   0.157E-01    0.658E-01
RMM:   7    -0.220463425857E+03    0.24282E-02   -0.16679E-03  7706   0.101E-01    0.197E-01
RMM:   8    -0.220463290677E+03    0.13518E-03   -0.45809E-04  7953   0.517E-02    0.188E-01
RMM:   9    -0.220463094007E+03    0.19667E-03   -0.14522E-04  7793   0.289E-02    0.693E-02
RMM:  10    -0.220463055874E+03    0.38134E-04   -0.53901E-05  7924   0.176E-02    0.371E-02
RMM:  11    -0.220463049203E+03    0.66705E-05   -0.33893E-05  7981   0.139E-02    0.233E-02
RMM:  12    -0.220463046802E+03    0.24013E-05   -0.15106E-05  8032   0.907E-03    0.117E-02
RMM:  13    -0.220463045715E+03    0.10872E-05   -0.30320E-06  8713   0.370E-03    0.459E-03
RMM:  14    -0.220463045609E+03    0.10563E-06   -0.11541E-06  7757   0.214E-03    0.299E-03
RMM:  15    -0.220463045570E+03    0.39658E-07   -0.31800E-07  5435   0.121E-03
  21 F= -.22046305E+03 E0= -.22046564E+03  d E =-.586356E-01  mag=    -0.0000
 curvature:  -1.53 expect dE=-0.122E+00 dE for cont linesearch -0.250E-05
 trial: gam= 0.75247 g(F)=  0.690E-01 g(S)=  0.104E-01 ort =-0.650E-03 (trialstep = 0.712E+00)
 search vector abs. value=  0.225E+00
 bond charge predicted
       N       E                     dE             d eps       ncg     rms          rms(c)
DAV:   1    -0.220463707937E+03   -0.66233E-03   -0.24259E+01  7296   0.144E+01    0.172E+00
RMM:   2    -0.220512782073E+03   -0.49074E-01   -0.68737E-01  7296   0.260E+00    0.150E+00
RMM:   3    -0.220523129783E+03   -0.10348E-01   -0.52992E-02  7824   0.722E-01    0.190E+00
RMM:   4    -0.220504810268E+03    0.18320E-01   -0.14694E-02  7567   0.310E-01    0.894E-01
RMM:   5    -0.220500081080E+03    0.47292E-02   -0.71551E-03  7652   0.215E-01    0.508E-01
RMM:   6    -0.220499252547E+03    0.82853E-03   -0.38291E-03  7700   0.147E-01    0.292E-01
RMM:   7    -0.220499041668E+03    0.21088E-03   -0.12006E-03  7814   0.862E-02    0.239E-01
RMM:   8    -0.220498979242E+03    0.62426E-04   -0.49155E-04  8566   0.499E-02    0.212E-01
RMM:   9    -0.220498740798E+03    0.23844E-03   -0.18205E-04  8219   0.320E-02    0.728E-02
RMM:  10    -0.220498729683E+03    0.11115E-04   -0.63620E-05  8883   0.188E-02    0.545E-02
RMM:  11    -0.220498731595E+03   -0.19118E-05   -0.36741E-05  8733   0.139E-02    0.500E-02
RMM:  12    -0.220498730390E+03    0.12045E-05   -0.20441E-05  8353   0.107E-02    0.341E-02
RMM:  13    -0.220498724514E+03    0.58766E-05   -0.82365E-06  8527   0.665E-03    0.754E-03
RMM:  14    -0.220498724304E+03    0.20973E-06   -0.20466E-06  8861   0.303E-03    0.407E-03
RMM:  15    -0.220498724318E+03   -0.14279E-07   -0.71948E-07  6916   0.167E-03
  22 F= -.22049872E+03 E0= -.22050072E+03  d E =-.356787E-01  mag=    -0.0000
 trial-energy change:   -0.035679  1 .order   -0.035619   -0.056210   -0.015029
 step:   0.9724(harm=  0.9724)  dis= 0.02436  next Energy=  -220.501407 (dE=-0.384E-01)
 bond charge predicted
       N       E                     dE             d eps       ncg     rms          rms(c)
DAV:   1    -0.220496709427E+03    0.20149E-02   -0.32352E+00  7424   0.527E+00    0.621E-01
RMM:   2    -0.220503308274E+03   -0.65988E-02   -0.90248E-02  7296   0.941E-01    0.571E-01
RMM:   3    -0.220504473405E+03   -0.11651E-02   -0.68166E-03  7830   0.262E-01    0.692E-01
RMM:   4    -0.220502071073E+03    0.24023E-02   -0.19662E-03  7542   0.114E-01    0.313E-01
RMM:   5    -0.220501565373E+03    0.50570E-03   -0.98882E-04  7628   0.809E-02    0.200E-01
RMM:   6    -0.220501433970E+03    0.13140E-03   -0.51734E-04  7652   0.548E-02    0.116E-01
RMM:   7    -0.220501412498E+03    0.21472E-04   -0.16592E-04  7818   0.321E-02    0.109E-01
RMM:   8    -0.220501380201E+03    0.32297E-04   -0.71413E-05  8335   0.194E-02    0.673E-02
RMM:   9    -0.220501356070E+03    0.24131E-04   -0.25213E-05  7988   0.120E-02    0.291E-02
RMM:  10    -0.220501355778E+03    0.29212E-06   -0.90602E-06  8827   0.678E-03    0.268E-02
RMM:  11    -0.220501354852E+03    0.92600E-06   -0.48003E-06  8387   0.522E-03    0.153E-02
RMM:  12    -0.220501355445E+03   -0.59298E-06   -0.28709E-06  7769   0.398E-03    0.108E-02
RMM:  13    -0.220501355124E+03    0.32122E-06   -0.10358E-06  7441   0.232E-03    0.225E-03
RMM:  14    -0.220501355179E+03   -0.54777E-07   -0.22735E-07  5051   0.113E-03
  23 F= -.22050136E+03 E0= -.22050314E+03  d E =-.383096E-01  mag=     0.0000
 curvature:  -1.39 expect dE=-0.773E-01 dE for cont linesearch -0.290E-05
 trial: gam= 0.67012 g(F)=  0.408E-01 g(S)=  0.149E-01 ort =-0.686E-03 (trialstep = 0.764E+00)
 search vector abs. value=  0.156E+00
 bond charge predicted
       N       E                     dE             d eps       ncg     rms          rms(c)
DAV:   1    -0.220496403463E+03    0.49517E-02   -0.19080E+01  7296   0.129E+01    0.142E+00
RMM:   2    -0.220543317050E+03   -0.46914E-01   -0.49941E-01  7296   0.225E+00    0.166E+00
RMM:   3    -0.220539237961E+03    0.40791E-02   -0.38096E-02  8038   0.598E-01    0.145E+00
RMM:   4    -0.220531811581E+03    0.74264E-02   -0.86216E-03  7814   0.231E-01    0.890E-01
RMM:   5    -0.220528227028E+03    0.35846E-02   -0.49167E-03  7589   0.172E-01    0.572E-01
RMM:   6    -0.220530952477E+03   -0.27254E-02   -0.45132E-03  7584   0.166E-01    0.884E-01
RMM:   7    -0.220527064503E+03    0.38880E-02   -0.21923E-03  7634   0.120E-01    0.236E-01
RMM:   8    -0.220526726895E+03    0.33761E-03   -0.64924E-04  7850   0.647E-02    0.133E-01
RMM:   9    -0.220526623691E+03    0.10320E-03   -0.21056E-04  7874   0.324E-02    0.102E-01
RMM:  10    -0.220526579925E+03    0.43765E-04   -0.67752E-05  8162   0.190E-02    0.552E-02
RMM:  11    -0.220526569177E+03    0.10748E-04   -0.30681E-05  7935   0.133E-02    0.331E-02
RMM:  12    -0.220526566016E+03    0.31614E-05   -0.15612E-05  8442   0.908E-03    0.194E-02
RMM:  13    -0.220526563962E+03    0.20544E-05   -0.44002E-06  8946   0.462E-03    0.733E-03
RMM:  14    -0.220526563851E+03    0.11050E-06   -0.15641E-06  8091   0.229E-03    0.426E-03
RMM:  15    -0.220526563795E+03    0.56396E-07   -0.58184E-07  6352   0.143E-03
  24 F= -.22052656E+03 E0= -.22052823E+03  d E =-.252086E-01  mag=     0.0000
 trial-energy change:   -0.025209  1 .order   -0.025269   -0.042283   -0.008255
 step:   0.9498(harm=  0.9498)  dis= 0.02306  next Energy=  -220.527625 (dE=-0.263E-01)
 bond charge predicted
       N       E                     dE             d eps       ncg     rms          rms(c)
DAV:   1    -0.220525823933E+03    0.73992E-03   -0.11234E+00  7488   0.312E+00    0.347E-01
RMM:   2    -0.220528624555E+03   -0.28006E-02   -0.29364E-02  7296   0.547E-01    0.414E-01
RMM:   3    -0.220528317514E+03    0.30704E-03   -0.22265E-03  7996   0.145E-01    0.350E-01
RMM:   4    -0.220527861684E+03    0.45583E-03   -0.50969E-04  7792   0.563E-02    0.210E-01
RMM:   5    -0.220527672564E+03    0.18912E-03   -0.28523E-04  7590   0.414E-02    0.139E-01
RMM:   6    -0.220527822450E+03   -0.14989E-03   -0.25922E-04  7573   0.396E-02    0.212E-01
RMM:   7    -0.220527596574E+03    0.22588E-03   -0.12891E-04  7634   0.289E-02    0.561E-02
RMM:   8    -0.220527577424E+03    0.19149E-04   -0.35219E-05  7860   0.151E-02    0.298E-02
RMM:   9    -0.220527571612E+03    0.58121E-05   -0.11280E-05  7932   0.739E-03    0.222E-02
RMM:  10    -0.220527569707E+03    0.19052E-05   -0.37204E-06  7908   0.436E-03    0.138E-02
RMM:  11    -0.220527568835E+03    0.87197E-06   -0.18487E-06  7404   0.324E-03    0.805E-03
RMM:  12    -0.220527568456E+03    0.37868E-06   -0.86366E-07  7165   0.219E-03    0.427E-03
RMM:  13    -0.220527568261E+03    0.19482E-06   -0.22282E-07  5035   0.119E-03    0.161E-03
RMM:  14    -0.220527568258E+03    0.35507E-08   -0.97840E-08  4558   0.923E-04
  25 F= -.22052757E+03 E0= -.22052919E+03  d E =-.262131E-01  mag=     0.0000
 curvature:  -1.34 expect dE=-0.451E-01 dE for cont linesearch -0.197E-09
 trial: gam= 0.58384 g(F)=  0.262E-01 g(S)=  0.754E-02 ort = 0.479E-05 (trialstep = 0.801E+00)
 search vector abs. value=  0.868E-01
 bond charge predicted
       N       E                     dE             d eps       ncg     rms          rms(c)
DAV:   1    -0.220533243887E+03   -0.56756E-02   -0.11382E+01  7296   0.975E+00    0.122E+00
RMM:   2    -0.220564326971E+03   -0.31083E-01   -0.32425E-01  7296   0.175E+00    0.174E+00
RMM:   3    -0.220552475914E+03    0.11851E-01   -0.24027E-02  7706   0.500E-01    0.963E-01
RMM:   4    -0.220550736598E+03    0.17393E-02   -0.85973E-03  7630   0.231E-01    0.932E-01
RMM:   5    -0.220545644271E+03    0.50923E-02   -0.47745E-03  7510   0.178E-01    0.411E-01
RMM:   6    -0.220545232988E+03    0.41128E-03   -0.25757E-03  7706   0.126E-01    0.254E-01
RMM:   7    -0.220545163963E+03    0.69025E-04   -0.70562E-04  7896   0.647E-02    0.246E-01
RMM:   8    -0.220544915688E+03    0.24827E-03   -0.25187E-04  8079   0.365E-02    0.968E-02
RMM:   9    -0.220544889712E+03    0.25976E-04   -0.90203E-05  8257   0.223E-02    0.838E-02
RMM:  10    -0.220544866564E+03    0.23148E-04   -0.41840E-05  8160   0.155E-02    0.349E-02
RMM:  11    -0.220544865032E+03    0.15319E-05   -0.17174E-05  8609   0.975E-03    0.204E-02
RMM:  12    -0.220544865903E+03   -0.87080E-06   -0.69235E-06  9605   0.551E-03    0.103E-02
RMM:  13    -0.220544865830E+03    0.72701E-07   -0.26623E-06  9032   0.318E-03    0.743E-03
RMM:  14    -0.220544865667E+03    0.16265E-06   -0.93616E-07  7029   0.181E-03    0.338E-03
 num prob  num prob RMM:  15    -0.220544865801E+03   -0.13422E-06   -0.36711E-07  5479   0.126E-03    0.191E-03
RMM:  16    -0.220544865906E+03   -0.10461E-06   -0.21568E-07  4858   0.101E-03    0.103E-03
 num prob  num prob RMM:  17    -0.220544865947E+03   -0.40745E-07   -0.79135E-08  4558   0.786E-04
  26 F= -.22054487E+03 E0= -.22054675E+03  d E =-.172977E-01  mag=     0.0000
 trial-energy change:   -0.017298  1 .order   -0.017297   -0.027009   -0.007585
 step:   1.1145(harm=  1.1145)  dis= 0.02344  next Energy=  -220.546346 (dE=-0.188E-01)
 bond charge predicted
       N       E                     dE             d eps       ncg     rms          rms(c)
DAV:   1    -0.220544539809E+03    0.32610E-03   -0.17370E+00  7296   0.381E+00    0.473E-01
RMM:   2    -0.220549347779E+03   -0.48080E-02   -0.49249E-02  7296   0.682E-01    0.687E-01
RMM:   3    -0.220547440002E+03    0.19078E-02   -0.36171E-03  7706   0.195E-01    0.374E-01
RMM:   4    -0.220547185394E+03    0.25461E-03   -0.13010E-03  7632   0.896E-02    0.361E-01
RMM:   5    -0.220546424482E+03    0.76091E-03   -0.72288E-04  7496   0.699E-02    0.162E-01
RMM:   6    -0.220546396871E+03    0.27611E-04   -0.40558E-04  7692   0.497E-02    0.120E-01
RMM:   7    -0.220546346921E+03    0.49950E-04   -0.11579E-04  7750   0.266E-02    0.808E-02
RMM:   8    -0.220546321661E+03    0.25260E-04   -0.42056E-05  7992   0.149E-02    0.348E-02
RMM:   9    -0.220546318736E+03    0.29251E-05   -0.13970E-05  8124   0.871E-03    0.336E-02
RMM:  10    -0.220546316255E+03    0.24814E-05   -0.61357E-06  8297   0.564E-03    0.197E-02
RMM:  11    -0.220546315397E+03    0.85774E-06   -0.30721E-06  7814   0.419E-03    0.845E-03
RMM:  12    -0.220546316136E+03   -0.73870E-06   -0.10610E-06  7661   0.224E-03    0.418E-03
RMM:  13    -0.220546316194E+03   -0.57815E-07   -0.40954E-07  5710   0.145E-03
  27 F= -.22054632E+03 E0= -.22054830E+03  d E =-.187479E-01  mag=     0.0000
 curvature:  -1.44 expect dE=-0.438E-01 dE for cont linesearch -0.242E-06
 trial: gam= 0.90799 g(F)=  0.196E-01 g(S)=  0.109E-01 ort =-0.121E-03 (trialstep = 0.737E+00)
 search vector abs. value=  0.102E+00
 bond charge predicted
       N       E                     dE             d eps       ncg     rms          rms(c)
DAV:   1    -0.220543502850E+03    0.28133E-02   -0.11149E+01  7296   0.955E+00    0.121E+00
RMM:   2    -0.220568421153E+03   -0.24918E-01   -0.30196E-01  7296   0.169E+00    0.124E+00
RMM:   3    -0.220568928502E+03   -0.50735E-03   -0.23837E-02  8080   0.469E-01    0.107E+00
RMM:   4    -0.220564193348E+03    0.47352E-02   -0.73389E-03  7604   0.219E-01    0.786E-01
RMM:   5    -0.220561981056E+03    0.22123E-02   -0.41944E-03  7556   0.165E-01    0.543E-01
RMM:   6    -0.220561865702E+03    0.11535E-03   -0.27191E-03  7602   0.129E-01    0.477E-01
RMM:   7    -0.220560619518E+03    0.12462E-02   -0.10134E-03  7712   0.807E-02    0.153E-01
RMM:   8    -0.220560505381E+03    0.11414E-03   -0.25876E-04  8360   0.374E-02    0.113E-01
RMM:   9    -0.220560466944E+03    0.38437E-04   -0.90252E-05  9044   0.208E-02    0.767E-02
RMM:  10    -0.220560439192E+03    0.27752E-04   -0.49335E-05  8317   0.168E-02    0.322E-02
RMM:  11    -0.220560436391E+03    0.28008E-05   -0.18001E-05  9242   0.990E-03    0.185E-02
RMM:  12    -0.220560433622E+03    0.27691E-05   -0.71722E-06  9686   0.569E-03    0.750E-03
RMM:  13    -0.220560433193E+03    0.42897E-06   -0.24629E-06  9657   0.270E-03    0.375E-03
 num prob  num prob RMM:  14    -0.220560433100E+03    0.93314E-07   -0.86826E-07  6817   0.157E-03
  28 F= -.22056043E+03 E0= -.22056265E+03  d E =-.141169E-01  mag=     0.0000
 trial-energy change:   -0.014117  1 .order   -0.014192   -0.022375   -0.006008
 step:   1.0178(harm=  1.0072)  dis= 0.02361  next Energy=  -220.561575 (dE=-0.153E-01)
 bond charge predicted
       N       E                     dE             d eps       ncg     rms          rms(c)
DAV:   1    -0.220559098017E+03    0.13352E-02   -0.16228E+00  7424   0.364E+00    0.466E-01
RMM:   2    -0.220562683456E+03   -0.35854E-02   -0.44079E-02  7296   0.646E-01    0.470E-01
RMM:   3    -0.220562845990E+03   -0.16253E-03   -0.35019E-03  8056   0.180E-01    0.418E-01
RMM:   4    -0.220562098184E+03    0.74781E-03   -0.10737E-03  7594   0.838E-02    0.298E-01
RMM:   5    -0.220561775376E+03    0.32281E-03   -0.60653E-04  7567   0.623E-02    0.211E-01
RMM:   6    -0.220561753269E+03    0.22106E-04   -0.39759E-04  7602   0.489E-02    0.182E-01
RMM:   7    -0.220561567764E+03    0.18551E-03   -0.14883E-04  7710   0.310E-02    0.565E-02
RMM:   8    -0.220561550744E+03    0.17020E-04   -0.36212E-05  8465   0.138E-02    0.414E-02
RMM:   9    -0.220561545387E+03    0.53567E-05   -0.12692E-05  9088   0.773E-03    0.286E-02
RMM:  10    -0.220561541094E+03    0.42930E-05   -0.71048E-06  8290   0.633E-03    0.125E-02
RMM:  11    -0.220561540185E+03    0.90913E-06   -0.26654E-06  8468   0.376E-03    0.699E-03
RMM:  12    -0.220561539463E+03    0.72223E-06   -0.98529E-07  7228   0.215E-03    0.241E-03
RMM:  13    -0.220561539346E+03    0.11644E-06   -0.33866E-07  5749   0.129E-03    0.142E-03
 num prob  num prob RMM:  14    -0.220561539315E+03    0.30723E-07   -0.13966E-07  4720   0.908E-04
  29 F= -.22056154E+03 E0= -.22056384E+03  d E =-.152231E-01  mag=     0.0000
 curvature:  -1.69 expect dE=-0.415E-01 dE for cont linesearch -0.104E-05
 trial: gam= 0.81027 g(F)=  0.138E-01 g(S)=  0.108E-01 ort =-0.251E-03 (trialstep = 0.793E+00)
 search vector abs. value=  0.911E-01
 bond charge predicted
       N       E                     dE             d eps       ncg     rms          rms(c)
DAV:   1    -0.220553170339E+03    0.83690E-02   -0.11865E+01  7296   0.990E+00    0.129E+00
RMM:   2    -0.220574446543E+03   -0.21276E-01   -0.32442E-01  7296   0.177E+00    0.897E-01
RMM:   3    -0.220581910303E+03   -0.74638E-02   -0.26361E-02  7954   0.492E-01    0.136E+00
RMM:   4    -0.220572545050E+03    0.93653E-02   -0.75113E-03  7650   0.216E-01    0.626E-01
RMM:   5    -0.220572631516E+03   -0.86466E-04   -0.37404E-03  7656   0.153E-01    0.595E-01
RMM:   6    -0.220571788730E+03    0.84279E-03   -0.22640E-03  7618   0.115E-01    0.434E-01
RMM:   7    -0.220570728727E+03    0.10600E-02   -0.85707E-04  7654   0.733E-02    0.175E-01
RMM:   8    -0.220570728192E+03    0.53453E-06   -0.34742E-04  7979   0.438E-02    0.206E-01
RMM:   9    -0.220570527010E+03    0.20118E-03   -0.13845E-04  7838   0.277E-02    0.592E-02
RMM:  10    -0.220570516653E+03    0.10356E-04   -0.43483E-05  7956   0.165E-02    0.473E-02
RMM:  11    -0.220570508264E+03    0.83888E-05   -0.18639E-05  8564   0.998E-03    0.191E-02
RMM:  12    -0.220570509455E+03   -0.11908E-05   -0.59085E-06 10070   0.490E-03    0.686E-03
RMM:  13    -0.220570509802E+03   -0.34709E-06   -0.21267E-06  8971   0.270E-03    0.488E-03
RMM:  14    -0.220570509867E+03   -0.64221E-07   -0.81877E-07  6805   0.165E-03
  30 F= -.22057051E+03 E0= -.22057289E+03  d E =-.897055E-02  mag=     0.0000
 trial-energy change:   -0.008971  1 .order   -0.008927   -0.019364    0.001509
 step:   0.7363(harm=  0.7356)  dis= 0.01665  next Energy=  -220.570564 (dE=-0.902E-02)
 bond charge predicted
       N       E                     dE             d eps       ncg     rms          rms(c)
DAV:   1    -0.220570482578E+03    0.27225E-04   -0.60679E-02  7680   0.709E-01    0.908E-02
RMM:   2    -0.220570591412E+03   -0.10883E-03   -0.16458E-03  7296   0.126E-01    0.651E-02
RMM:   3    -0.220570624926E+03   -0.33513E-04   -0.12930E-04  7906   0.351E-02    0.939E-02
RMM:   4    -0.220570580787E+03    0.44138E-04   -0.37706E-05  7594   0.154E-02    0.460E-02
RMM:   5    -0.220570583011E+03   -0.22238E-05   -0.19580E-05  7538   0.111E-02    0.472E-02
RMM:   6    -0.220570575286E+03    0.77244E-05   -0.11777E-05  7540   0.846E-03    0.301E-02
RMM:   7    -0.220570569833E+03    0.54537E-05   -0.44162E-06  7518   0.533E-03    0.130E-02
RMM:   8    -0.220570569374E+03    0.45907E-06   -0.16492E-06  7118   0.307E-03    0.140E-02
RMM:   9    -0.220570568293E+03    0.10811E-05   -0.65632E-07  6254   0.200E-03    0.419E-03
RMM:  10    -0.220570568090E+03    0.20260E-06   -0.18990E-07  4656   0.132E-03    0.331E-03
RMM:  11    -0.220570567936E+03    0.15413E-06   -0.98599E-08  4310   0.110E-03    0.130E-03
RMM:  12    -0.220570567844E+03    0.91990E-07   -0.40141E-08  4040   0.648E-04
  31 F= -.22057057E+03 E0= -.22057294E+03  d E =-.902853E-02  mag=     0.0000
 curvature:  -1.37 expect dE=-0.168E-01 dE for cont linesearch -0.286E-08
 trial: gam= 0.48800 g(F)=  0.105E-01 g(S)=  0.178E-02 ort =-0.138E-04 (trialstep = 0.782E+00)
 search vector abs. value=  0.340E-01
 bond charge predicted
       N       E                     dE             d eps       ncg     rms          rms(c)
DAV:   1    -0.220568629259E+03    0.19387E-02   -0.47149E+00  7296   0.625E+00    0.648E-01
RMM:   2    -0.220578650439E+03   -0.10021E-01   -0.11460E-01  7296   0.107E+00    0.453E-01
RMM:   3    -0.220579554776E+03   -0.90434E-03   -0.82642E-03  8232   0.282E-01    0.460E-01
RMM:   4    -0.220578804224E+03    0.75055E-03   -0.18778E-03  8308   0.102E-01    0.425E-01
RMM:   5    -0.220578250354E+03    0.55387E-03   -0.81206E-04  7852   0.702E-02    0.242E-01
RMM:   6    -0.220578103060E+03    0.14729E-03   -0.70458E-04  7554   0.625E-02    0.181E-01
RMM:   7    -0.220577963688E+03    0.13937E-03   -0.19972E-04  7898   0.359E-02    0.104E-01
RMM:   8    -0.220577920930E+03    0.42758E-04   -0.75898E-05  8370   0.202E-02    0.687E-02
RMM:   9    -0.220577894183E+03    0.26746E-04   -0.26688E-05  8064   0.122E-02    0.377E-02
RMM:  10    -0.220577887986E+03    0.61978E-05   -0.10293E-05  8128   0.766E-03    0.200E-02
RMM:  11    -0.220577885867E+03    0.21183E-05   -0.63913E-06  8010   0.603E-03    0.114E-02
RMM:  12    -0.220577885442E+03    0.42517E-06   -0.25258E-06  7988   0.401E-03    0.614E-03
RMM:  13    -0.220577885056E+03    0.38627E-06   -0.71121E-07  6309   0.181E-03    0.260E-03
RMM:  14    -0.220577885034E+03    0.22072E-07   -0.28940E-07  5260   0.135E-03
  32 F= -.22057789E+03 E0= -.22058041E+03  d E =-.731719E-02  mag=     0.0000
 trial-energy change:   -0.007317  1 .order   -0.007353   -0.009587   -0.005120
 step:   1.7897(harm=  1.6773)  dis= 0.02990  next Energy=  -220.581109 (dE=-0.105E-01)
 bond charge predicted
       N       E                     dE             d eps       ncg     rms          rms(c)
DAV:   1    -0.220565348826E+03    0.12536E-01   -0.78427E+00  7296   0.806E+00    0.839E-01
RMM:   2    -0.220582053757E+03   -0.16705E-01   -0.19086E-01  7296   0.137E+00    0.583E-01
RMM:   3    -0.220583475577E+03   -0.14218E-02   -0.13807E-02  8214   0.365E-01    0.585E-01
RMM:   4    -0.220582256507E+03    0.12191E-02   -0.31068E-03  8328   0.130E-01    0.542E-01
RMM:   5    -0.220581346196E+03    0.91031E-03   -0.13352E-03  7882   0.899E-02    0.306E-01
RMM:   6    -0.220581086983E+03    0.25921E-03   -0.11680E-03  7550   0.806E-02    0.223E-01
RMM:   7    -0.220580885033E+03    0.20195E-03   -0.33096E-04  7886   0.460E-02    0.133E-01
RMM:   8    -0.220580817330E+03    0.67704E-04   -0.12427E-04  8366   0.258E-02    0.860E-02
RMM:   9    -0.220580776130E+03    0.41199E-04   -0.43744E-05  8130   0.156E-02    0.508E-02
RMM:  10    -0.220580765134E+03    0.10996E-04   -0.17355E-05  8200   0.988E-03    0.262E-02
RMM:  11    -0.220580761717E+03    0.34174E-05   -0.10437E-05  8048   0.774E-03    0.147E-02
RMM:  12    -0.220580761262E+03    0.45441E-06   -0.42213E-06  8163   0.516E-03    0.783E-03
RMM:  13    -0.220580760674E+03    0.58859E-06   -0.12677E-06  7454   0.232E-03    0.336E-03
RMM:  14    -0.220580760624E+03    0.49458E-07   -0.48791E-07  6176   0.153E-03
  33 F= -.22058076E+03 E0= -.22058350E+03  d E =-.101928E-01  mag=     0.0000
 curvature:  -2.28 expect dE=-0.400E-01 dE for cont linesearch -0.428E-04
 trial: gam= 1.48901 g(F)=  0.142E-01 g(S)=  0.329E-02 ort =-0.797E-03 (trialstep = 0.369E+00)
 search vector abs. value=  0.904E-01
 bond charge predicted
       N       E                     dE             d eps       ncg     rms          rms(c)
DAV:   1    -0.220580962715E+03   -0.20204E-03   -0.28337E+00  7328   0.483E+00    0.497E-01
RMM:   2    -0.220586435498E+03   -0.54728E-02   -0.68732E-02  7296   0.827E-01    0.350E-01
RMM:   3    -0.220587588820E+03   -0.11533E-02   -0.51528E-03  8156   0.216E-01    0.557E-01
RMM:   4    -0.220586049000E+03    0.15398E-02   -0.93125E-04  7936   0.770E-02    0.188E-01
RMM:   5    -0.220586272939E+03   -0.22394E-03   -0.74930E-04  7522   0.687E-02    0.292E-01
RMM:   6    -0.220585916201E+03    0.35674E-03   -0.35426E-04  7534   0.465E-02    0.150E-01
RMM:   7    -0.220585810345E+03    0.10586E-03   -0.11840E-04  7822   0.269E-02    0.704E-02
RMM:   8    -0.220585781070E+03    0.29275E-04   -0.33480E-05  8258   0.137E-02    0.309E-02
RMM:   9    -0.220585777612E+03    0.34589E-05   -0.92661E-06  8912   0.690E-03    0.215E-02
RMM:  10    -0.220585777848E+03   -0.23650E-06   -0.51269E-06  8358   0.499E-03    0.214E-02
RMM:  11    -0.220585777167E+03    0.68078E-06   -0.29349E-06  7816   0.398E-03    0.116E-02
RMM:  12    -0.220585776783E+03    0.38450E-06   -0.10650E-06  7134   0.247E-03    0.510E-03
RMM:  13    -0.220585776762E+03    0.21246E-07   -0.33087E-07  5406   0.131E-03
  34 F= -.22058578E+03 E0= -.22058867E+03  d E =-.501614E-02  mag=     0.0000
 trial-energy change:   -0.005016  1 .order   -0.005028   -0.006023   -0.004033
 step:   1.2188(harm=  1.1175)  dis= 0.03360  next Energy=  -220.590270 (dE=-0.951E-02)
 bond charge predicted
[...]
RMM:   3    -0.220778169020E+03   -0.22873E-04   -0.61382E-04  7880   0.798E-02    0.172E-01
RMM:   4    -0.220778023818E+03    0.14520E-03   -0.13135E-04  7858   0.287E-02    0.825E-02
RMM:   5    -0.220778009188E+03    0.14629E-04   -0.79879E-05  7684   0.218E-02    0.930E-02
RMM:   6    -0.220778011257E+03   -0.20684E-05   -0.47076E-05  7736   0.162E-02    0.842E-02
RMM:   7    -0.220777970300E+03    0.40957E-04   -0.34139E-05  7658   0.147E-02    0.190E-02
RMM:   8    -0.220777968559E+03    0.17406E-05   -0.63095E-06  7884   0.633E-03    0.155E-02
RMM:   9    -0.220777967700E+03    0.85941E-06   -0.20660E-06  7976   0.311E-03    0.910E-03
RMM:  10    -0.220777967421E+03    0.27852E-06   -0.80627E-07  6582   0.204E-03    0.474E-03
RMM:  11    -0.220777967531E+03   -0.10971E-06   -0.39424E-07  5506   0.155E-03    0.247E-03
RMM:  12    -0.220777967602E+03   -0.71530E-07   -0.16462E-07  4706   0.121E-03
  71 F= -.22077797E+03 E0= -.22077919E+03  d E =-.414380E-03  mag=     0.0000
 trial-energy change:   -0.000414  1 .order   -0.000413   -0.000704   -0.000122
 step:   1.0997(harm=  1.0997)  dis= 0.00375  next Energy=  -220.777979 (dE=-0.426E-03)
 bond charge predicted
       N       E                     dE             d eps       ncg     rms          rms(c)
DAV:   1    -0.220777953135E+03    0.14396E-04   -0.16217E-02  7456   0.373E-01    0.361E-02
RMM:   2    -0.220777988443E+03   -0.35308E-04   -0.40517E-04  7296   0.638E-02    0.364E-02
RMM:   3    -0.220777989049E+03   -0.60551E-06   -0.27387E-05  7908   0.168E-02    0.358E-02
RMM:   4    -0.220777982781E+03    0.62675E-05   -0.58983E-06  7846   0.605E-03    0.172E-02
RMM:   5    -0.220777982285E+03    0.49641E-06   -0.36098E-06  7580   0.461E-03    0.198E-02
RMM:   6    -0.220777982366E+03   -0.81047E-07   -0.21034E-06  7356   0.341E-03    0.176E-02
RMM:   7    -0.220777980652E+03    0.17140E-05   -0.15353E-06  7366   0.312E-03    0.394E-03
RMM:   8    -0.220777980589E+03    0.62959E-07   -0.23363E-07  4896   0.135E-03
  72 F= -.22077798E+03 E0= -.22077920E+03  d E =-.427366E-03  mag=    -0.0000
 curvature:  -1.47 expect dE=-0.781E-03 dE for cont linesearch -0.994E-09
 trial: gam= 0.68759 g(F)=  0.524E-03 g(S)=  0.849E-05 ort = 0.118E-05 (trialstep = 0.947E+00)
 search vector abs. value=  0.151E-02
 bond charge predicted
       N       E                     dE             d eps       ncg     rms          rms(c)
DAV:   1    -0.220777701356E+03    0.27930E-03   -0.30180E-01  7296   0.157E+00    0.143E-01
RMM:   2    -0.220778356329E+03   -0.65497E-03   -0.70791E-03  7296   0.262E-01    0.148E-01
RMM:   3    -0.220778368029E+03   -0.11699E-04   -0.46006E-04  7888   0.710E-02    0.130E-01
RMM:   4    -0.220778295676E+03    0.72353E-04   -0.99019E-05  8122   0.239E-02    0.840E-02
RMM:   5    -0.220778293764E+03    0.19114E-05   -0.55638E-05  7754   0.177E-02    0.863E-02
RMM:   6    -0.220778292005E+03    0.17595E-05   -0.45549E-05  7646   0.160E-02    0.788E-02
RMM:   7    -0.220778261284E+03    0.30721E-04   -0.26133E-05  7664   0.123E-02    0.294E-02
RMM:   8    -0.220778258528E+03    0.27559E-05   -0.79288E-06  7638   0.704E-03    0.233E-02
RMM:   9    -0.220778255717E+03    0.28111E-05   -0.24559E-06  7546   0.376E-03    0.809E-03
RMM:  10    -0.220778255287E+03    0.43077E-06   -0.68796E-07  6198   0.196E-03    0.462E-03
RMM:  11    -0.220778255168E+03    0.11812E-06   -0.51023E-07  5972   0.177E-03    0.295E-03
RMM:  12    -0.220778255138E+03    0.30333E-07   -0.23504E-07  4748   0.133E-03
  73 F= -.22077826E+03 E0= -.22077949E+03  d E =-.274549E-03  mag=     0.0000
 trial-energy change:   -0.000275  1 .order   -0.000272   -0.000505   -0.000039
 step:   1.0223(harm=  1.0250)  dis= 0.00270  next Energy=  -220.778257 (dE=-0.276E-03)
 bond charge predicted
       N       E                     dE             d eps       ncg     rms          rms(c)
DAV:   1    -0.220778253645E+03    0.15236E-05   -0.19266E-03  7680   0.126E-01    0.114E-02
RMM:   2    -0.220778257818E+03   -0.41728E-05   -0.45201E-05  7296   0.209E-02    0.126E-02
RMM:   3    -0.220778257728E+03    0.89960E-07   -0.30276E-06  7904   0.569E-03    0.104E-02
RMM:   4    -0.220778257268E+03    0.45944E-06   -0.60326E-07  6096   0.191E-03    0.631E-03
RMM:   5    -0.220778257294E+03   -0.25597E-07   -0.38166E-07  5346   0.170E-03
  74 F= -.22077826E+03 E0= -.22077948E+03  d E =-.276705E-03  mag=     0.0000
 curvature:  -1.45 expect dE=-0.619E-03 dE for cont linesearch -0.747E-07
 trial: gam= 0.79714 g(F)=  0.399E-03 g(S)=  0.284E-04 ort = 0.883E-05 (trialstep = 0.962E+00)
 search vector abs. value=  0.140E-02
 bond charge predicted
       N       E                     dE             d eps       ncg     rms          rms(c)
DAV:   1    -0.220777992778E+03    0.26449E-03   -0.30050E-01  7296   0.157E+00    0.150E-01
RMM:   2    -0.220778557167E+03   -0.56439E-03   -0.71567E-03  7296   0.265E-01    0.991E-02
RMM:   3    -0.220778642051E+03   -0.84884E-04   -0.49309E-04  8074   0.698E-02    0.143E-01
RMM:   4    -0.220778539898E+03    0.10215E-03   -0.94753E-05  7996   0.238E-02    0.799E-02
RMM:   5    -0.220778531447E+03    0.84513E-05   -0.50644E-05  7692   0.175E-02    0.663E-02
RMM:   6    -0.220778517655E+03    0.13791E-04   -0.34205E-05  7602   0.137E-02    0.475E-02
RMM:   7    -0.220778506987E+03    0.10668E-04   -0.15624E-05  7738   0.954E-03    0.284E-02
RMM:   8    -0.220778504790E+03    0.21972E-05   -0.57151E-06  7826   0.591E-03    0.192E-02
RMM:   9    -0.220778502801E+03    0.19886E-05   -0.17994E-06  7296   0.323E-03    0.779E-03
RMM:  10    -0.220778502619E+03    0.18238E-06   -0.59814E-07  6129   0.191E-03    0.545E-03
RMM:  11    -0.220778502602E+03    0.16567E-07   -0.35897E-07  5292   0.164E-03
  75 F= -.22077850E+03 E0= -.22077975E+03  d E =-.245308E-03  mag=    -0.0000
 trial-energy change:   -0.000245  1 .order   -0.000245   -0.000418   -0.000073
 step:   1.1654(harm=  1.1654)  dis= 0.00308  next Energy=  -220.778511 (dE=-0.253E-03)
 bond charge predicted
       N       E                     dE             d eps       ncg     rms          rms(c)
DAV:   1    -0.220778487027E+03    0.15592E-04   -0.13481E-02  7424   0.333E-01    0.319E-02
RMM:   2    -0.220778513345E+03   -0.26318E-04   -0.32377E-04  7296   0.563E-02    0.238E-02
RMM:   3    -0.220778518936E+03   -0.55914E-05   -0.23637E-05  7990   0.151E-02    0.374E-02
RMM:   4    -0.220778511612E+03    0.73245E-05   -0.46405E-06  7768   0.532E-03    0.152E-02
RMM:   5    -0.220778511032E+03    0.58016E-06   -0.22376E-06  7277   0.370E-03    0.120E-02
RMM:   6    -0.220778510913E+03    0.11885E-06   -0.17405E-06  7374   0.307E-03    0.111E-02
RMM:   7    -0.220778510300E+03    0.61280E-06   -0.65451E-07  6195   0.201E-03    0.554E-03
RMM:   8    -0.220778510222E+03    0.78224E-07   -0.24791E-07  4790   0.145E-03
  76 F= -.22077851E+03 E0= -.22077976E+03  d E =-.252928E-03  mag=    -0.0000
 curvature:  -1.88 expect dE=-0.482E-03 dE for cont linesearch -0.600E-07
 trial: gam= 0.60084 g(F)=  0.250E-03 g(S)=  0.667E-05 ort = 0.669E-05 (trialstep = 0.100E+01)
 search vector abs. value=  0.771E-03
 bond charge predicted
       N       E                     dE             d eps       ncg     rms          rms(c)
DAV:   1    -0.220778349859E+03    0.16044E-03   -0.18515E-01  7296   0.121E+00    0.107E-01
RMM:   2    -0.220778761911E+03   -0.41205E-03   -0.42041E-03  7296   0.199E-01    0.116E-01
RMM:   3    -0.220778771057E+03   -0.91461E-05   -0.29900E-04  7910   0.554E-02    0.117E-01
RMM:   4    -0.220778698859E+03    0.72198E-04   -0.52833E-05  7988   0.181E-02    0.465E-02
RMM:   5    -0.220778695976E+03    0.28827E-05   -0.29184E-05  7702   0.128E-02    0.470E-02
RMM:   6    -0.220778687828E+03    0.81482E-05   -0.23153E-05  7476   0.112E-02    0.307E-02
RMM:   7    -0.220778684048E+03    0.37807E-05   -0.65516E-06  7608   0.622E-03    0.221E-02
RMM:   8    -0.220778681549E+03    0.24985E-05   -0.21475E-06  7391   0.355E-03    0.646E-03
RMM:   9    -0.220778681293E+03    0.25596E-06   -0.53126E-07  5865   0.168E-03    0.510E-03
RMM:  10    -0.220778681284E+03    0.86693E-08   -0.28942E-07  5137   0.148E-03
  77 F= -.22077868E+03 E0= -.22077994E+03  d E =-.171063E-03  mag=    -0.0000
 trial-energy change:   -0.000171  1 .order   -0.000165   -0.000261   -0.000068
 step:   1.2847(harm=  1.3560)  dis= 0.00169  next Energy=  -220.778691 (dE=-0.181E-03)
 bond charge predicted
       N       E                     dE             d eps       ncg     rms          rms(c)
DAV:   1    -0.220778666523E+03    0.14770E-04   -0.14680E-02  7584   0.342E-01    0.305E-02
RMM:   2    -0.220778701193E+03   -0.34670E-04   -0.33627E-04  7296   0.562E-02    0.364E-02
RMM:   3    -0.220778699690E+03    0.15034E-05   -0.24419E-05  7906   0.157E-02    0.322E-02
RMM:   4    -0.220778694491E+03    0.51990E-05   -0.43449E-06  7964   0.513E-03    0.139E-02
RMM:   5    -0.220778694121E+03    0.36982E-06   -0.23018E-06  7294   0.357E-03    0.131E-02
RMM:   6    -0.220778693698E+03    0.42239E-06   -0.20203E-06  7236   0.333E-03    0.105E-02
RMM:   7    -0.220778693133E+03    0.56550E-06   -0.66071E-07  6126   0.200E-03    0.449E-03
RMM:   8    -0.220778693035E+03    0.97891E-07   -0.14120E-07  4500   0.116E-03
  78 F= -.22077869E+03 E0= -.22077996E+03  d E =-.182813E-03  mag=     0.0000
 curvature:  -1.92 expect dE=-0.424E-03 dE for cont linesearch -0.927E-06
 trial: gam= 0.80459 g(F)=  0.205E-03 g(S)=  0.158E-04 ort = 0.193E-04 (trialstep = 0.106E+01)
 search vector abs. value=  0.751E-03
 bond charge predicted
       N       E                     dE             d eps       ncg     rms          rms(c)
DAV:   1    -0.220778427345E+03    0.26579E-03   -0.20846E-01  7296   0.130E+00    0.114E-01
RMM:   2    -0.220778868627E+03   -0.44128E-03   -0.49214E-03  7296   0.218E-01    0.851E-02
RMM:   3    -0.220778910403E+03   -0.41775E-04   -0.34406E-04  7978   0.574E-02    0.122E-01
RMM:   4    -0.220778844884E+03    0.65518E-04   -0.52451E-05  8112   0.173E-02    0.565E-02
RMM:   5    -0.220778846446E+03   -0.15619E-05   -0.23289E-05  7810   0.111E-02    0.611E-02
RMM:   6    -0.220778842851E+03    0.35957E-05   -0.28807E-05  7394   0.131E-02    0.547E-02
RMM:   7    -0.220778828239E+03    0.14611E-04   -0.13381E-05  7400   0.888E-03    0.172E-02
RMM:   8    -0.220778826613E+03    0.16263E-05   -0.28140E-06  7394   0.422E-03    0.120E-02
RMM:   9    -0.220778825934E+03    0.67930E-06   -0.77844E-07  6522   0.201E-03    0.766E-03
RMM:  10    -0.220778825583E+03    0.35062E-06   -0.38048E-07  5320   0.156E-03    0.401E-03
RMM:  11    -0.220778825503E+03    0.79672E-07   -0.28708E-07  4802   0.144E-03
  79 F= -.22077883E+03 E0= -.22078006E+03  d E =-.132468E-03  mag=     0.0000
 trial-energy change:   -0.000132  1 .order   -0.000127   -0.000250   -0.000003
 step:   1.0705(harm=  1.0722)  dis= 0.00183  next Energy=  -220.778826 (dE=-0.132E-03)
 bond charge predicted
       N       E                     dE             d eps       ncg     rms          rms(c)
DAV:   1    -0.220778825524E+03    0.59310E-07   -0.25556E-05  7904   0.146E-02    0.175E-03
RMM:   2    -0.220778825658E+03   -0.13465E-06   -0.76697E-07  6710   0.263E-03    0.336E-03
RMM:   3    -0.220778825589E+03    0.69609E-07   -0.63354E-08  4070   0.912E-04
  80 F= -.22077883E+03 E0= -.22078006E+03  d E =-.132554E-03  mag=     0.0000
 curvature:  -1.68 expect dE=-0.187E-03 dE for cont linesearch -0.286E-07
 trial: gam= 0.59014 g(F)=  0.107E-03 g(S)=  0.414E-05 ort = 0.358E-05 (trialstep = 0.106E+01)
 search vector abs. value=  0.377E-03
 bond charge predicted
       N       E                     dE             d eps       ncg     rms          rms(c)
DAV:   1    -0.220778707243E+03    0.11842E-03   -0.10468E-01  7296   0.912E-01    0.896E-02
RMM:   2    -0.220778920281E+03   -0.21304E-03   -0.24223E-03  7296   0.153E-01    0.578E-02
RMM:   3    -0.220778962923E+03   -0.42642E-04   -0.18916E-04  8152   0.408E-02    0.913E-02
RMM:   4    -0.220778915551E+03    0.47372E-04   -0.35599E-05  7820   0.145E-02    0.415E-02
RMM:   5    -0.220778911245E+03    0.43064E-05   -0.15855E-05  7644   0.968E-03    0.372E-02
RMM:   6    -0.220778908590E+03    0.26545E-05   -0.13647E-05  7440   0.880E-03    0.329E-02
RMM:   7    -0.220778903075E+03    0.55155E-05   -0.48010E-06  7410   0.535E-03    0.111E-02
RMM:   8    -0.220778902638E+03    0.43692E-06   -0.14987E-06  7080   0.291E-03    0.107E-02
RMM:   9    -0.220778901997E+03    0.64084E-06   -0.42298E-07  5544   0.162E-03    0.446E-03
RMM:  10    -0.220778901800E+03    0.19730E-06   -0.20133E-07  4625   0.139E-03    0.332E-03
RMM:  11    -0.220778901653E+03    0.14663E-06   -0.12372E-07  4312   0.114E-03    0.157E-03
RMM:  12    -0.220778901562E+03    0.91539E-07   -0.65580E-08  4222   0.864E-04
  81 F= -.22077890E+03 E0= -.22078014E+03  d E =-.759729E-04  mag=    -0.0000
 trial-energy change:   -0.000076  1 .order   -0.000074   -0.000120   -0.000028
 step:   1.3369(harm=  1.3795)  dis= 0.00167  next Energy=  -220.778905 (dE=-0.796E-04)
 bond charge predicted
       N       E                     dE             d eps       ncg     rms          rms(c)
DAV:   1    -0.220778895119E+03    0.65343E-05   -0.70614E-03  7328   0.237E-01    0.233E-02
RMM:   2    -0.220778909430E+03   -0.14311E-04   -0.16359E-04  7296   0.397E-02    0.155E-02
RMM:   3    -0.220778912312E+03   -0.28825E-05   -0.12977E-05  8122   0.107E-02    0.241E-02
RMM:   4    -0.220778908999E+03    0.33131E-05   -0.24728E-06  7576   0.380E-03    0.107E-02
RMM:   5    -0.220778908697E+03    0.30216E-06   -0.10920E-06  6688   0.254E-03    0.990E-03
RMM:   6    -0.220778908400E+03    0.29712E-06   -0.94418E-07  6692   0.236E-03    0.846E-03
RMM:   7    -0.220778907975E+03    0.42441E-06   -0.30576E-07  5046   0.147E-03    0.273E-03
RMM:   8    -0.220778907928E+03    0.46912E-07   -0.92454E-08  4222   0.106E-03
  82 F= -.22077891E+03 E0= -.22078016E+03  d E =-.823397E-04  mag=    -0.0000
 curvature:  -2.25 expect dE=-0.275E-03 dE for cont linesearch -0.137E-06
 trial: gam= 1.04143 g(F)=  0.898E-04 g(S)=  0.325E-04 ort = 0.479E-05 (trialstep = 0.778E+00)
 search vector abs. value=  0.541E-03
 bond charge predicted
       N       E                     dE             d eps       ncg     rms          rms(c)
DAV:   1    -0.220778841280E+03    0.66695E-04   -0.78786E-02  7296   0.817E-01    0.820E-02
RMM:   2    -0.220778997338E+03   -0.15606E-03   -0.20014E-03  7296   0.139E-01    0.669E-02
RMM:   3    -0.220779017524E+03   -0.20186E-04   -0.15234E-04  7940   0.377E-02    0.883E-02
RMM:   4    -0.220778976948E+03    0.40576E-04   -0.33011E-05  7596   0.147E-02    0.409E-02
RMM:   5    -0.220778974380E+03    0.25682E-05   -0.13719E-05  7538   0.935E-03    0.365E-02
RMM:   6    -0.220778975835E+03   -0.14552E-05   -0.12381E-05  7414   0.900E-03    0.355E-02
RMM:   7    -0.220778969419E+03    0.64161E-05   -0.54570E-06  7464   0.583E-03    0.161E-02
RMM:   8    -0.220778968686E+03    0.73268E-06   -0.16897E-06  6998   0.320E-03    0.112E-02
RMM:   9    -0.220778968404E+03    0.28194E-06   -0.66535E-07  6114   0.200E-03    0.597E-03
RMM:  10    -0.220778968356E+03    0.47959E-07   -0.24205E-07  4798   0.143E-03
  83 F= -.22077897E+03 E0= -.22078019E+03  d E =-.604278E-04  mag=    -0.0000
 trial-energy change:   -0.000060  1 .order   -0.000060   -0.000099   -0.000020
 step:   0.9681(harm=  0.9808)  dis= 0.00174  next Energy=  -220.778971 (dE=-0.629E-04)
 bond charge predicted
       N       E                     dE             d eps       ncg     rms          rms(c)
DAV:   1    -0.220778963220E+03    0.51846E-05   -0.47235E-03  7360   0.200E-01    0.204E-02
RMM:   2    -0.220778973262E+03   -0.10042E-04   -0.12107E-04  7296   0.343E-02    0.179E-02
RMM:   3    -0.220778974080E+03   -0.81887E-06   -0.95354E-06  7968   0.929E-03    0.217E-02
RMM:   4    -0.220778971858E+03    0.22224E-05   -0.20763E-06  7476   0.369E-03    0.107E-02
RMM:   5    -0.220778971571E+03    0.28713E-06   -0.79080E-07  6444   0.229E-03    0.795E-03
RMM:   6    -0.220778972027E+03   -0.45591E-06   -0.80645E-07  6580   0.230E-03    0.978E-03
RMM:   7    -0.220778971605E+03    0.42148E-06   -0.33795E-07  5140   0.159E-03    0.377E-03
RMM:   8    -0.220778971577E+03    0.28755E-07   -0.94595E-08  4240   0.108E-03
  84 F= -.22077897E+03 E0= -.22078019E+03  d E =-.636482E-04  mag=    -0.0000
 curvature:  -2.08 expect dE=-0.220E-03 dE for cont linesearch -0.614E-07
 trial: gam= 0.87984 g(F)=  0.552E-04 g(S)=  0.506E-04 ort = 0.400E-05 (trialstep = 0.816E+00)
 search vector abs. value=  0.532E-03
 bond charge predicted
       N       E                     dE             d eps       ncg     rms          rms(c)
DAV:   1    -0.220778879819E+03    0.91786E-04   -0.80495E-02  7296   0.831E-01    0.851E-02
RMM:   2    -0.220779057791E+03   -0.17797E-03   -0.20448E-03  7296   0.143E-01    0.765E-02
RMM:   3    -0.220779076609E+03   -0.18818E-04   -0.15258E-04  8096   0.372E-02    0.930E-02
RMM:   4    -0.220779034302E+03    0.42307E-04   -0.32865E-05  7646   0.148E-02    0.511E-02
RMM:   5    -0.220779024925E+03    0.93768E-05   -0.15517E-05  7592   0.999E-03    0.383E-02
RMM:   6    -0.220779025235E+03   -0.30990E-06   -0.16263E-05  7508   0.103E-02    0.354E-02
RMM:   7    -0.220779018579E+03    0.66562E-05   -0.66474E-06  7530   0.659E-03    0.165E-02
RMM:   8    -0.220779017173E+03    0.14050E-05   -0.18360E-06  7098   0.341E-03    0.103E-02
RMM:   9    -0.220779016756E+03    0.41755E-06   -0.73843E-07  6488   0.210E-03    0.733E-03
RMM:  10    -0.220779016291E+03    0.46508E-06   -0.28476E-07  4944   0.149E-03    0.235E-03
RMM:  11    -0.220779016151E+03    0.13986E-06   -0.11171E-07  4358   0.111E-03    0.225E-03
RMM:  12    -0.220779016042E+03    0.10908E-06   -0.52602E-08  4284   0.880E-04    0.724E-04
RMM:  13    -0.220779016000E+03    0.41975E-07   -0.18023E-08  4126   0.425E-04
  85 F= -.22077902E+03 E0= -.22078020E+03  d E =-.444233E-04  mag=    -0.0000
 trial-energy change:   -0.000044  1 .order   -0.000045   -0.000089   -0.000000
 step:   0.8160(harm=  0.8160)  dis= 0.00161  next Energy=  -220.779016 (dE=-0.446E-04)
 bond charge predicted
       N       E                     dE             d eps       ncg     rms          rms(c)
DAV:   1    -0.220779015995E+03    0.46810E-07   -0.11901E-08  4704   0.432E-04    0.256E-04
RMM:   2    -0.220779015990E+03    0.46712E-08   -0.67781E-09  3289   0.296E-04
  86 F= -.22077902E+03 E0= -.22078020E+03  d E =-.444138E-04  mag=    -0.0000
 curvature:  -1.98 expect dE=-0.161E-03 dE for cont linesearch -0.661E-09
 trial: gam= 0.79006 g(F)=  0.600E-04 g(S)=  0.213E-04 ort =-0.421E-06 (trialstep = 0.816E+00)
 search vector abs. value=  0.413E-03
 bond charge predicted
       N       E                     dE             d eps       ncg     rms          rms(c)
DAV:   1    -0.220778959972E+03    0.56023E-04   -0.57598E-02  7296   0.683E-01    0.706E-02
RMM:   2    -0.220779108759E+03   -0.14879E-03   -0.13861E-03  7296   0.116E-01    0.880E-02
RMM:   3    -0.220779096140E+03    0.12619E-04   -0.11168E-04  7942   0.325E-02    0.703E-02
RMM:   4    -0.220779071934E+03    0.24206E-04   -0.22172E-05  7834   0.122E-02    0.356E-02
RMM:   5    -0.220779067376E+03    0.45580E-05   -0.11602E-05  7740   0.830E-03    0.338E-02
RMM:   6    -0.220779065953E+03    0.14236E-05   -0.87148E-06  7638   0.739E-03    0.222E-02
RMM:   7    -0.220779062914E+03    0.30387E-05   -0.36231E-06  7682   0.472E-03    0.808E-03
RMM:   8    -0.220779062769E+03    0.14509E-06   -0.79955E-07  6620   0.216E-03    0.548E-03
RMM:   9    -0.220779062709E+03    0.59990E-07   -0.21824E-07  4746   0.128E-03
  87 F= -.22077906E+03 E0= -.22078025E+03  d E =-.467185E-04  mag=    -0.0000
 trial-energy change:   -0.000047  1 .order   -0.000045   -0.000066   -0.000024
 step:   1.1604(harm=  1.2795)  dis= 0.00183  next Energy=  -220.779068 (dE=-0.519E-04)
 reached required accuracy - stopping structural energy minimisation
