unknown system                          
           1
    15.332914    0.000000   -1.147902
     0.000000    3.677759    0.000000
    -0.342904    0.000000   10.910160
   Sr   Ir   O 
   3  10  20
Direct configuration=     1
   0.24660000  0.00000000  0.12420000
   0.75340000  0.00000000  0.87580000
   0.25340000  0.50000000  0.87580000
   0.00000000  0.50000000  0.00000000
   0.50000000  0.00000000  0.00000000
   0.99978000  0.00000000  0.26820000
   0.49978000  0.50000000  0.26820000
   0.00022000  0.00000000  0.73180000
   0.50022000  0.50000000  0.73180000
   0.34010000  0.00000000  0.48410000
   0.84010000  0.50000000  0.48410000
   0.65990000  0.00000000  0.51590000
   0.15990000  0.50000000  0.51590000
   0.56690000  0.00000000  0.17730000
   0.06690000  0.50000000  0.17730000
   0.43310000  0.00000000  0.82270000
   0.93310000  0.50000000  0.82270000
   0.09760000  0.00000000  0.42440000
   0.59760000  0.50000000  0.42440000
   0.90240000  0.00000000  0.57560000
   0.40240000  0.50000000  0.57560000
   0.76630000  0.00000000  0.39580000
   0.26630000  0.50000000  0.39580000
   0.23370000  0.00000000  0.60420000
   0.73370000  0.50000000  0.60420000
   0.42480000  0.00000000  0.33540000
   0.92480000  0.50000000  0.33540000
   0.57520000  0.00000000  0.66460000
   0.07520000  0.50000000  0.66460000
   0.92630000  0.00000000  0.07210000
   0.42630000  0.50000000  0.07210000
   0.07370000  0.00000000  0.92790000
   0.57370000  0.50000000  0.92790000
unknown system                          
           1
    14.362477    0.000000   -0.759294
     0.000000    3.107668    0.000000
    -0.107904    0.000000   10.065734
   Sr   Ir   O 
   3  10  20
Direct configuration=     2
   0.24586666  0.00000000  0.14387577
   0.75353132  0.00000000  0.87366212
   0.25394927  0.50000000  0.85609321
  -0.00131418  0.50000000  0.00256219
   0.50276398  0.00000000  0.00225022
   0.99838547  0.00000000  0.27297754
   0.50615411  0.50000000  0.27179516
  -0.00196246  0.00000000  0.72529851
   0.49799556  0.50000000  0.72746531
   0.34782606  0.00000000  0.47973099
   0.84597646  0.50000000  0.47422690
   0.65359555  0.00000000  0.51404363
   0.15235909  0.50000000  0.51973637
   0.57701920  0.00000000  0.17941006
   0.08348569  0.50000000  0.17862687
   0.41609231  0.00000000  0.82036118
   0.91616714  0.50000000  0.82149127
   0.08789592  0.00000000  0.41038626
   0.58748815  0.50000000  0.41159982
   0.91248686  0.00000000  0.58996946
   0.41215354  0.50000000  0.58950568
   0.76449033  0.00000000  0.37911763
   0.26352059  0.50000000  0.37049236
   0.23644315  0.00000000  0.62970118
   0.73660076  0.50000000  0.63064157
   0.41826355  0.00000000  0.33754349
   0.92112404  0.50000000  0.33929960
   0.58063012  0.00000000  0.66339338
   0.08087146  0.50000000  0.66338418
   0.91343742  0.00000000  0.08484033
   0.40926116  0.50000000  0.08626366
   0.09146360  0.00000000  0.91338928
   0.58937809  0.50000000  0.91266484
unknown system                          
           1
    14.297934    0.000000   -0.733448
     0.000000    3.069752    0.000000
    -0.092275    0.000000   10.009572
   Sr   Ir   O 
   3  10  20
Direct configuration=     3
   0.24605516  0.00000000  0.13190747
   0.75347869  0.00000000  0.87496104
   0.25387581  0.50000000  0.86808575
  -0.00053078  0.50000000  0.00103905
   0.50101224  0.00000000  0.00079880
   0.99918871  0.00000000  0.27010679
   0.50213608  0.50000000  0.26941939
  -0.00051488  0.00000000  0.72932360
   0.49943975  0.50000000  0.73017126
   0.34307474  0.00000000  0.48216901
   0.84245185  0.50000000  0.48007257
   0.65754650  0.00000000  0.51535783
   0.15700239  0.50000000  0.51761755
   0.57068942  0.00000000  0.17783054
   0.07314003  0.50000000  0.17733688
   0.42671453  0.00000000  0.82228006
   0.92672737  0.50000000  0.82271935
   0.09412943  0.00000000  0.41920733
   0.59395904  0.50000000  0.41969323
   0.90601015  0.00000000  0.58092052
   0.40589070  0.50000000  0.58074902
   0.76584452  0.00000000  0.38933569
   0.26559616  0.50000000  0.38599444
   0.23438753  0.00000000  0.61408221
   0.73443418  0.50000000  0.61444499
   0.42230446  0.00000000  0.33642708
   0.92335985  0.50000000  0.33703005
   0.57726533  0.00000000  0.66397102
   0.07735652  0.50000000  0.66396042
   0.92127307  0.00000000  0.07745029
   0.41967789  0.50000000  0.07812753
   0.08060031  0.00000000  0.92171585
   0.57982327  0.50000000  0.92149339
unknown system                          
           1
    14.275740    0.000000   -0.724560
     0.000000    3.056713    0.000000
    -0.086900    0.000000    9.990259
   Sr   Ir   O 
   3  10  20
Direct configuration=     4
   0.24608107  0.00000000  0.13104523
   0.75347359  0.00000000  0.87505469
   0.25385804  0.50000000  0.86894948
  -0.00047358  0.50000000  0.00092762
   0.50088941  0.00000000  0.00069819
   0.99924873  0.00000000  0.26989828
   0.50185335  0.50000000  0.26925728
  -0.00041634  0.00000000  0.72961021
   0.49953943  0.50000000  0.73036289
   0.34273491  0.00000000  0.48235516
   0.84219554  0.50000000  0.48050136
   0.65782559  0.00000000  0.51544365
   0.15733421  0.50000000  0.51745462
   0.57024175  0.00000000  0.17773091
   0.07240699  0.50000000  0.17726706
   0.42746655  0.00000000  0.82239455
   0.92747570  0.50000000  0.82278423
   0.09456269  0.00000000  0.41982862
   0.59440990  0.50000000  0.42026160
   0.90555987  0.00000000  0.58028336
   0.40545530  0.50000000  0.58013243
   0.76592995  0.00000000  0.39006846
   0.26572726  0.50000000  0.38710610
   0.23425796  0.00000000  0.61296209
   0.73429734  0.50000000  0.61328353
   0.42259247  0.00000000  0.33633768
   0.92352093  0.50000000  0.33686164
   0.57702588  0.00000000  0.66402011
   0.07710641  0.50000000  0.66400975
   0.92183702  0.00000000  0.07690067
   0.42042584  0.50000000  0.07751843
   0.07982045  0.00000000  0.92233967
   0.57913578  0.50000000  0.92215044
unknown system                          
           1
    13.663870    0.000000   -0.810143
     0.000000    3.130669    0.000000
    -0.149119    0.000000    9.871017
   Sr   Ir   O 
   3  10  20
Direct configuration=     5
   0.24609033  0.00000000  0.13074706
   0.75347179  0.00000000  0.87508708
   0.25385158  0.50000000  0.86924816
  -0.00045378  0.50000000  0.00088905
   0.50084702  0.00000000  0.00066350
   0.99926954  0.00000000  0.26982613
   0.50175574  0.50000000  0.26920144
  -0.00038241  0.00000000  0.72970924
   0.49957379  0.50000000  0.73042907
   0.34261746  0.00000000  0.48241979
   0.84210684  0.50000000  0.48064984
   0.65792196  0.00000000  0.51547311
   0.15744889  0.50000000  0.51739802
   0.57008715  0.00000000  0.17769681
   0.07215380  0.50000000  0.17724348
   0.42772627  0.00000000  0.82243356
   0.92773418  0.50000000  0.82280609
   0.09471212  0.00000000  0.42004312
   0.59456544  0.50000000  0.42045779
   0.90540456  0.00000000  0.58006338
   0.40530512  0.50000000  0.57991956
   0.76595919  0.00000000  0.39032178
   0.26577215  0.50000000  0.38749040
   0.23421361  0.00000000  0.61257487
   0.73425049  0.50000000  0.61288202
   0.42269199  0.00000000  0.33630654
   0.92357664  0.50000000  0.33680328
   0.57694315  0.00000000  0.66403728
   0.07702000  0.50000000  0.66402700
   0.92203203  0.00000000  0.07671018
   0.42068443  0.50000000  0.07730723
   0.07955084  0.00000000  0.92255597
   0.57889806  0.50000000  0.92237816
unknown system                          
           1
    13.193919    0.000000   -0.875876
     0.000000    3.187471    0.000000
    -0.196907    0.000000    9.779431
   Sr   Ir   O 
   3  10  20
Direct configuration=     6
   0.24546271  0.00000000  0.14477113
   0.75361145  0.00000000  0.87207874
   0.25425287  0.50000000  0.85509472
  -0.00079176  0.50000000  0.00081018
   0.50150773  0.00000000  0.00032854
   0.99798914  0.00000000  0.26809205
   0.50292843  0.50000000  0.26844637
  -0.00057377  0.00000000  0.73120993
   0.49947267  0.50000000  0.73200620
   0.34161163  0.00000000  0.48664887
   0.84084131  0.50000000  0.48327383
   0.65876137  0.00000000  0.51193965
   0.15849936  0.50000000  0.51358816
   0.57031084  0.00000000  0.18223507
   0.07564553  0.50000000  0.18163219
   0.42421975  0.00000000  0.81873121
   0.92378068  0.50000000  0.81939021
   0.09425966  0.00000000  0.42027725
   0.59409038  0.50000000  0.42080143
   0.90543935  0.00000000  0.57876815
   0.40544300  0.50000000  0.57905129
   0.76656560  0.00000000  0.39069977
   0.26568654  0.50000000  0.38289466
   0.23431739  0.00000000  0.61723079
   0.73434968  0.50000000  0.61698943
   0.42481181  0.00000000  0.33145527
   0.92682738  0.50000000  0.33393268
   0.57519159  0.00000000  0.66766833
   0.07492531  0.50000000  0.66861073
   0.92201361  0.00000000  0.07856636
   0.41788690  0.50000000  0.07980076
   0.08319015  0.00000000  0.92003176
   0.58087170  0.50000000  0.91874431
unknown system                          
           1
    12.895721    0.000000   -0.857267
     0.000000    3.215064    0.000000
    -0.175912    0.000000    9.820882
   Sr   Ir   O 
   3  10  20
Direct configuration=     7
   0.24500952  0.00000000  0.15567073
   0.75371270  0.00000000  0.86974068
   0.25452394  0.50000000  0.84409236
  -0.00106330  0.50000000  0.00074564
   0.50203678  0.00000000  0.00007433
   0.99695530  0.00000000  0.26673142
   0.50386686  0.50000000  0.26787034
  -0.00072194  0.00000000  0.73237509
   0.49939719  0.50000000  0.73323166
   0.34081963  0.00000000  0.48992799
   0.83983509  0.50000000  0.48530232
   0.65942232  0.00000000  0.50919988
   0.15932870  0.50000000  0.51063545
   0.57050671  0.00000000  0.18576629
   0.07846365  0.50000000  0.18507813
   0.42139224  0.00000000  0.81581886
   0.92059548  0.50000000  0.81669639
   0.09389737  0.00000000  0.42045503
   0.59371036  0.50000000  0.42106415
   0.90546260  0.00000000  0.57776126
   0.40555052  0.50000000  0.57837740
   0.76705365  0.00000000  0.39099947
   0.26560128  0.50000000  0.37932005
   0.23441745  0.00000000  0.62085236
   0.73444408  0.50000000  0.62018443
   0.42649561  0.00000000  0.32770288
   0.92942595  0.50000000  0.33173125
   0.57379895  0.00000000  0.67047533
   0.07326073  0.50000000  0.67215530
   0.92200550  0.00000000  0.08000961
   0.41565070  0.50000000  0.08171326
   0.08610180  0.00000000  0.91810339
   0.58244257  0.50000000  0.91593725
unknown system                          
           1
    12.651132    0.000000   -0.842004
     0.000000    3.237697    0.000000
    -0.158692    0.000000    9.854880
   Sr   Ir   O 
   3  10  20
Direct configuration=     8
   0.24459990  0.00000000  0.16757756
   0.75380272  0.00000000  0.86679665
   0.25475255  0.50000000  0.83222429
  -0.00032244  0.50000000  0.00050180
   0.50179526  0.00000000  0.00011241
   0.99769513  0.00000000  0.26435033
   0.50251939  0.50000000  0.26493885
  -0.00161775  0.00000000  0.73500993
   0.49876701  0.50000000  0.73525093
   0.34187688  0.00000000  0.48710480
   0.84113917  0.50000000  0.48442855
   0.65816808  0.00000000  0.51229081
   0.15811119  0.50000000  0.51281861
   0.57243290  0.00000000  0.18943846
   0.08143637  0.50000000  0.18881113
   0.41817021  0.00000000  0.81223634
   0.91713178  0.50000000  0.81341980
   0.09469716  0.00000000  0.42215010
   0.59529327  0.50000000  0.42379207
   0.90420321  0.00000000  0.57486502
   0.40446958  0.50000000  0.57620979
   0.76887504  0.00000000  0.38836522
   0.26666573  0.50000000  0.37493971
   0.23330176  0.00000000  0.62539489
   0.73350161  0.50000000  0.62401373
   0.42659943  0.00000000  0.32600043
   0.92975242  0.50000000  0.33157186
   0.57359103  0.00000000  0.67238401
   0.07357353  0.50000000  0.67406478
   0.92106382  0.00000000  0.07896184
   0.41332690  0.50000000  0.08152211
   0.08923442  0.00000000  0.91831773
   0.58479273  0.50000000  0.91593543
unknown system                          
           1
    12.644571    0.000000   -0.808917
     0.000000    3.201634    0.000000
    -0.128561    0.000000    9.919107
   Sr   Ir   O 
   3  10  20
Direct configuration=     9
   0.24423967  0.00000000  0.17730115
   0.75388235  0.00000000  0.86439244
   0.25496082  0.50000000  0.82253234
   0.00029963  0.50000000  0.00030274
   0.50159253  0.00000000  0.00014349
   0.99831928  0.00000000  0.26240591
   0.50139266  0.50000000  0.26254474
  -0.00237316  0.00000000  0.73716157
   0.49823538  0.50000000  0.73689989
   0.34276803  0.00000000  0.48479937
   0.84223476  0.50000000  0.48371512
   0.65711125  0.00000000  0.51481488
   0.15708644  0.50000000  0.51460135
   0.57404426  0.00000000  0.19243752
   0.08392590  0.50000000  0.19185995
   0.41547127  0.00000000  0.80931037
   0.91422960  0.50000000  0.81074365
   0.09536598  0.00000000  0.42353445
   0.59661787  0.50000000  0.42601996
   0.90315034  0.00000000  0.57249970
   0.40356546  0.50000000  0.57443953
   0.77040719  0.00000000  0.38621417
   0.26756507  0.50000000  0.37136264
   0.23235919  0.00000000  0.62910440
   0.73270539  0.50000000  0.62714080
   0.42668892  0.00000000  0.32461014
   0.93002662  0.50000000  0.33144172
   0.57341390  0.00000000  0.67394271
   0.07383339  0.50000000  0.67562417
   0.92027502  0.00000000  0.07810609
   0.41137704  0.50000000  0.08136577
   0.09186300  0.00000000  0.91849309
   0.58676497  0.50000000  0.91593418
unknown system                          
           1
    12.640715    0.000000   -0.789469
     0.000000    3.180437    0.000000
    -0.110851    0.000000    9.956859
   Sr   Ir   O 
   3  10  20
Direct configuration=    10
   0.24416447  0.00000000  0.18061040
   0.75384211  0.00000000  0.86271030
   0.25500948  0.50000000  0.81937957
   0.00128848  0.50000000 -0.00003305
   0.50127618  0.00000000  0.00093389
   0.99996428  0.00000000  0.26332819
   0.50211690  0.50000000  0.26472470
  -0.00437409  0.00000000  0.73582974
   0.49674731  0.50000000  0.73589222
   0.34250176  0.00000000  0.48041332
   0.84177532  0.50000000  0.48109118
   0.65856553  0.00000000  0.51884858
   0.15711157  0.50000000  0.51821864
   0.57565709  0.00000000  0.19057934
   0.08448059  0.50000000  0.19080362
   0.41469895  0.00000000  0.80971282
   0.91372375  0.50000000  0.81190153
   0.09563066  0.00000000  0.42420484
   0.59583584  0.50000000  0.42526873
   0.90390779  0.00000000  0.57323527
   0.40339527  0.50000000  0.57407591
   0.77076547  0.00000000  0.38486209
   0.26822299  0.50000000  0.37122982
   0.23158964  0.00000000  0.62905246
   0.73193080  0.50000000  0.62770020
   0.42545469  0.00000000  0.32503616
   0.92919054  0.50000000  0.33135339
   0.57379604  0.00000000  0.67508545
   0.07468641  0.50000000  0.67632039
   0.91937330  0.00000000  0.07528044
   0.41027645  0.50000000  0.07871077
   0.09301793  0.00000000  0.92068196
   0.58777651  0.50000000  0.91875716
unknown system                          
           1
    12.702016    0.000000   -0.800410
     0.000000    3.173299    0.000000
    -0.117027    0.000000   10.004563
   Sr   Ir   O 
   3  10  20
Direct configuration=    11
   0.24411548  0.00000000  0.18254271
   0.75382087  0.00000000  0.86172823
   0.25504263  0.50000000  0.81753866
   0.00187048  0.50000000 -0.00023102
   0.50108900  0.00000000  0.00139600
   0.00093034  0.00000000  0.26386349
   0.50253967  0.50000000  0.26599612
  -0.00554888  0.00000000  0.73505600
   0.49587365  0.50000000  0.73530676
   0.34235148  0.00000000  0.47785296
   0.84150892  0.50000000  0.47956003
   0.65941495  0.00000000  0.52120093
   0.15712114  0.50000000  0.52033062
   0.57660823  0.00000000  0.18949127
   0.08480832  0.50000000  0.19018578
   0.41424418  0.00000000  0.80994929
   0.91342461  0.50000000  0.81257856
   0.09578534  0.00000000  0.42459574
   0.59537704  0.50000000  0.42483161
   0.90435217  0.00000000  0.57366329
   0.40329570  0.50000000  0.57386394
   0.77097811  0.00000000  0.38407196
   0.26861009  0.50000000  0.37115099
   0.23113716  0.00000000  0.62902362
   0.73147447  0.50000000  0.62802831
   0.42472825  0.00000000  0.32528729
   0.92869898  0.50000000  0.33130343
   0.57401912  0.00000000  0.67575192
   0.07518706  0.50000000  0.67672525
   0.91884709  0.00000000  0.07363237
   0.40963305  0.50000000  0.07716272
   0.09369396  0.00000000  0.92195774
   0.58836732  0.50000000  0.92040346
unknown system                          
           1
    12.746709    0.000000   -0.808387
     0.000000    3.168095    0.000000
    -0.121530    0.000000   10.039343
   Sr   Ir   O 
   3  10  20
Direct configuration=    12
   0.24411258  0.00000000  0.18359036
   0.75358500  0.00000000  0.86048497
   0.25499104  0.50000000  0.81653088
   0.00266378  0.50000000 -0.00069069
   0.50064726  0.00000000  0.00158238
   0.00110313  0.00000000  0.26325922
   0.50318427  0.50000000  0.26466222
  -0.00567586  0.00000000  0.73627442
   0.49548861  0.50000000  0.73634519
   0.34155309  0.00000000  0.47836427
   0.84127208  0.50000000  0.47960194
   0.65974882  0.00000000  0.52116840
   0.15748615  0.50000000  0.52099393
   0.57767708  0.00000000  0.18736904
   0.08519793  0.50000000  0.18791284
   0.41367994  0.00000000  0.81168808
   0.91310642  0.50000000  0.81480555
   0.09612948  0.00000000  0.42555289
   0.59587129  0.50000000  0.42645775
   0.90416981  0.00000000  0.57270120
   0.40284148  0.50000000  0.57273834
   0.77016384  0.00000000  0.38282179
   0.26836995  0.50000000  0.37151999
   0.23110668  0.00000000  0.62810973
   0.73181664  0.50000000  0.62886714
   0.42440887  0.00000000  0.32445562
   0.92843204  0.50000000  0.33039401
   0.57443246  0.00000000  0.67692929
   0.07519317  0.50000000  0.67809537
   0.91865905  0.00000000  0.07274793
   0.40908124  0.50000000  0.07626691
   0.09437267  0.00000000  0.92262980
   0.58853002  0.50000000  0.92156926
unknown system                          
           1
    12.762296    0.000000   -0.816380
     0.000000    3.160339    0.000000
    -0.130331    0.000000   10.002174
   Sr   Ir   O 
   3  10  20
Direct configuration=    13
   0.24411081  0.00000000  0.18435056
   0.75341347  0.00000000  0.85958271
   0.25495328  0.50000000  0.81579958
   0.00323921  0.50000000 -0.00102384
   0.50032682  0.00000000  0.00171739
   0.00122830  0.00000000  0.26282083
   0.50365153  0.50000000  0.26369464
  -0.00576761  0.00000000  0.73715847
   0.49520957  0.50000000  0.73709850
   0.34097398  0.00000000  0.47873488
   0.84110025  0.50000000  0.47963222
   0.65999105  0.00000000  0.52114496
   0.15775120  0.50000000  0.52147544
   0.57845192  0.00000000  0.18582964
   0.08547989  0.50000000  0.18626374
   0.41327111  0.00000000  0.81294950
   0.91287627  0.50000000  0.81642135
   0.09637949  0.00000000  0.42624760
   0.59623043  0.50000000  0.42763797
   0.90403718  0.00000000  0.57200300
   0.40251155  0.50000000  0.57192133
   0.76957263  0.00000000  0.38191422
   0.26819583  0.50000000  0.37178763
   0.23108427  0.00000000  0.62744657
   0.73206517  0.50000000  0.62947600
   0.42417687  0.00000000  0.32385198
   0.92823805  0.50000000  0.32973398
   0.57473274  0.00000000  0.67778384
   0.07519806  0.50000000  0.67908957
   0.91852232  0.00000000  0.07210605
   0.40868058  0.50000000  0.07561660
   0.09486533  0.00000000  0.92311781
   0.58864844  0.50000000  0.92241528
unknown system                          
           1
    12.775534    0.000000   -0.823168
     0.000000    3.153752    0.000000
    -0.137805    0.000000    9.970609
   Sr   Ir   O 
   3  10  20
Direct configuration=    14
   0.24418378  0.00000000  0.18529774
   0.75296014  0.00000000  0.85778117
   0.25483838  0.50000000  0.81501844
   0.00378089  0.50000000 -0.00105562
   0.49993980  0.00000000  0.00162862
   0.00161381  0.00000000  0.26200125
   0.50525242  0.50000000  0.26289168
  -0.00642575  0.00000000  0.73797309
   0.49450055  0.50000000  0.73786142
   0.34083080  0.00000000  0.47852911
   0.84063709  0.50000000  0.47867928
   0.66032026  0.00000000  0.52140784
   0.15733560  0.50000000  0.52191800
   0.57927605  0.00000000  0.18333112
   0.08592052  0.50000000  0.18348745
   0.41253460  0.00000000  0.81535149
   0.91267340  0.50000000  0.81922947
   0.09613220  0.00000000  0.42647615
   0.59585974  0.50000000  0.42808453
   0.90461275  0.00000000  0.57223620
   0.40296312  0.50000000  0.57221726
   0.76830259  0.00000000  0.38136289
   0.26731674  0.50000000  0.37271377
   0.23147596  0.00000000  0.62637603
   0.73298735  0.50000000  0.63017021
   0.42354572  0.00000000  0.32322698
   0.92766017  0.50000000  0.32903890
   0.57551418  0.00000000  0.67901814
   0.07555973  0.50000000  0.68038623
   0.91912592  0.00000000  0.07158205
   0.40826271  0.50000000  0.07520317
   0.09564038  0.00000000  0.92326374
   0.58826843  0.50000000  0.92311220
unknown system                          
           1
    12.800403    0.000000   -0.794871
     0.000000    3.159687    0.000000
    -0.116641    0.000000    9.960490
   Sr   Ir   O 
   3  10  20
Direct configuration=    15
   0.24424625  0.00000000  0.18610519
   0.75257452  0.00000000  0.85624520
   0.25474044  0.50000000  0.81435250
   0.00424032  0.50000000 -0.00108238
   0.49961148  0.00000000  0.00155272
   0.00194029  0.00000000  0.26130283
   0.50660979  0.50000000  0.26220816
  -0.00698348  0.00000000  0.73866711
   0.49389963  0.50000000  0.73851134
   0.34070922  0.00000000  0.47835362
   0.84024365  0.50000000  0.47786668
   0.66059965  0.00000000  0.52163212
   0.15698335  0.50000000  0.52229500
   0.57997352  0.00000000  0.18120178
   0.08629255  0.50000000  0.18112110
   0.41191138  0.00000000  0.81739859
   0.91250306  0.50000000  0.82162310
   0.09592259  0.00000000  0.42667084
   0.59554560  0.50000000  0.42846497
   0.90510109  0.00000000  0.57243532
   0.40334633  0.50000000  0.57246979
   0.76722501  0.00000000  0.38089215
   0.26657167  0.50000000  0.37350273
   0.23180752  0.00000000  0.62546369
   0.73376996  0.50000000  0.63076254
   0.42300999  0.00000000  0.32269383
   0.92716958  0.50000000  0.32844605
   0.57617776  0.00000000  0.68007076
   0.07586730  0.50000000  0.68149177
   0.91963758  0.00000000  0.07113574
   0.40790801  0.50000000  0.07485050
   0.09629786  0.00000000  0.92338860
   0.58794654  0.50000000  0.92370606
unknown system                          
           1
    12.821723    0.000000   -0.770613
     0.000000    3.164775    0.000000
    -0.098498    0.000000    9.951816
   Sr   Ir   O 
   3  10  20
Direct configuration=    16
   0.24442084  0.00000000  0.18635846
   0.75186761  0.00000000  0.85403311
   0.25451080  0.50000000  0.81434205
   0.00452317  0.50000000 -0.00150278
   0.49932428  0.00000000  0.00124505
   0.00219595  0.00000000  0.26058842
   0.50738519  0.50000000  0.26187036
  -0.00735868  0.00000000  0.73995191
   0.49378667  0.50000000  0.73958663
   0.34153986  0.00000000  0.47835405
   0.84033939  0.50000000  0.47738034
   0.66040379  0.00000000  0.52250734
   0.15600340  0.50000000  0.52233231
   0.58133619  0.00000000  0.18004353
   0.08748197  0.50000000  0.18021032
   0.41062179  0.00000000  0.81872943
   0.91176511  0.50000000  0.82298504
   0.09494226  0.00000000  0.42617734
   0.59495412  0.50000000  0.42838950
   0.90535613  0.00000000  0.57217207
   0.40404202  0.50000000  0.57293923
   0.76590275  0.00000000  0.38019194
   0.26523568  0.50000000  0.37434849
   0.23241546  0.00000000  0.62507943
   0.73499106  0.50000000  0.63155737
   0.42325895  0.00000000  0.32116897
   0.92690392  0.50000000  0.32706467
   0.57666097  0.00000000  0.68186816
   0.07592149  0.50000000  0.68288237
   0.92043749  0.00000000  0.07074494
   0.40739537  0.50000000  0.07465731
   0.09742769  0.00000000  0.92341754
   0.58740729  0.50000000  0.92412508
unknown system                          
           1
    12.818127    0.000000   -0.738200
     0.000000    3.154379    0.000000
    -0.074633    0.000000    9.929847
   Sr   Ir   O 
   3  10  20
Direct configuration=    17
   0.24456986  0.00000000  0.18657534
   0.75126590  0.00000000  0.85213684
   0.25431434  0.50000000  0.81433368
   0.00476577  0.50000000 -0.00186423
   0.49907899  0.00000000  0.00098179
   0.00241570  0.00000000  0.25997476
   0.50804910  0.50000000  0.26157852
  -0.00768151  0.00000000  0.74105530
   0.49368850  0.50000000  0.74050957
   0.34225056  0.00000000  0.47835229
   0.84042200  0.50000000  0.47696280
   0.66023497  0.00000000  0.52325884
   0.15516490  0.50000000  0.52236683
   0.58250373  0.00000000  0.17904619
   0.08850093  0.50000000  0.17942576
   0.40951654  0.00000000  0.81987468
   0.91113180  0.50000000  0.82415556
   0.09410417  0.00000000  0.42575642
   0.59444816  0.50000000  0.42832628
   0.90557472  0.00000000  0.57194552
   0.40463661  0.50000000  0.57334025
   0.76477240  0.00000000  0.37959452
   0.26409140  0.50000000  0.37507763
   0.23293616  0.00000000  0.62474816
   0.73603472  0.50000000  0.63223624
   0.42347410  0.00000000  0.31985991
   0.92667857  0.50000000  0.32588005
   0.57707186  0.00000000  0.68340918
   0.07596589  0.50000000  0.68407544
   0.92112246  0.00000000  0.07040755
   0.40695703  0.50000000  0.07449285
   0.09839433  0.00000000  0.92343947
   0.58694532  0.50000000  0.92448601
unknown system                          
           1
    12.816494    0.000000   -0.723481
     0.000000    3.149658    0.000000
    -0.063796    0.000000    9.919870
   Sr   Ir   O 
   3  10  20
Direct configuration=    18
   0.24498159  0.00000000  0.18650942
   0.75036329  0.00000000  0.84955680
   0.25381319  0.50000000  0.81469471
   0.00534173  0.50000000 -0.00203180
   0.49896898  0.00000000  0.00188125
   0.00264834  0.00000000  0.25889155
   0.50850431  0.50000000  0.26031872
  -0.00823968  0.00000000  0.74150465
   0.49348421  0.50000000  0.74167255
   0.34303239  0.00000000  0.47832069
   0.84047278  0.50000000  0.47627382
   0.65968453  0.00000000  0.52361271
   0.15432766  0.50000000  0.52228687
   0.58383214  0.00000000  0.17875120
   0.08990215  0.50000000  0.17956215
   0.40814780  0.00000000  0.82007458
   0.91010886  0.50000000  0.82446089
   0.09302142  0.00000000  0.42561029
   0.59427801  0.50000000  0.42901820
   0.90583288  0.00000000  0.57189443
   0.40543407  0.50000000  0.57360878
   0.76425748  0.00000000  0.37974565
   0.26334706  0.50000000  0.37615790
   0.23306747  0.00000000  0.62430817
   0.73683213  0.50000000  0.63269338
   0.42436306  0.00000000  0.31799633
   0.92669122  0.50000000  0.32385201
   0.57708067  0.00000000  0.68605016
   0.07532778  0.50000000  0.68581190
   0.92205801  0.00000000  0.07000781
   0.40652952  0.50000000  0.07442303
   0.09963166  0.00000000  0.92355922
   0.58627328  0.50000000  0.92472198
unknown system                          
           1
    12.827933    0.000000   -0.725882
     0.000000    3.151771    0.000000
    -0.065983    0.000000    9.915047
   Sr   Ir   O 
   3  10  20
Direct configuration=    19
   0.24516867  0.00000000  0.18647881
   0.74995545  0.00000000  0.84838403
   0.25358524  0.50000000  0.81485975
   0.00560349  0.50000000 -0.00210891
   0.49891825  0.00000000  0.00229072
   0.00275493  0.00000000  0.25839827
   0.50871215  0.50000000  0.25974474
  -0.00849360  0.00000000  0.74170997
   0.49339043  0.50000000  0.74220208
   0.34338756  0.00000000  0.47830515
   0.84049643  0.50000000  0.47596022
   0.65943420  0.00000000  0.52377456
   0.15394741  0.50000000  0.52225172
   0.58443582  0.00000000  0.17861500
   0.09053853  0.50000000  0.17962214
   0.40752589  0.00000000  0.82016757
   0.90964394  0.50000000  0.82460135
   0.09252971  0.00000000  0.42554539
   0.59420014  0.50000000  0.42933333
   0.90595020  0.00000000  0.57187080
   0.40579609  0.50000000  0.57372981
   0.76402345  0.00000000  0.37981518
   0.26300804  0.50000000  0.37665060
   0.23312749  0.00000000  0.62410775
   0.73719397  0.50000000  0.63290023
   0.42476843  0.00000000  0.31714696
   0.92669867  0.50000000  0.32292909
   0.57708246  0.00000000  0.68725197
   0.07503646  0.50000000  0.68660305
   0.92248331  0.00000000  0.06982452
   0.40633539  0.50000000  0.07439188
   0.10019361  0.00000000  0.92361190
   0.58596781  0.50000000  0.92483035
unknown system                          
           1
    12.839180    0.000000   -0.728242
     0.000000    3.153848    0.000000
    -0.068133    0.000000    9.910306
   Sr   Ir   O 
   3  10  20
Direct configuration=    20
   0.24587598  0.00000000  0.18617485
   0.74912731  0.00000000  0.84628099
   0.25280989  0.50000000  0.81543048
   0.00643004  0.50000000 -0.00239206
   0.49878773  0.00000000  0.00316626
   0.00331736  0.00000000  0.25740689
   0.50959487  0.50000000  0.25908838
  -0.00941514  0.00000000  0.74169874
   0.49249645  0.50000000  0.74315917
   0.34371420  0.00000000  0.47786896
   0.84080198  0.50000000  0.47543670
   0.65902211  0.00000000  0.52432519
   0.15347663  0.50000000  0.52282382
   0.58573697  0.00000000  0.17874927
   0.09170582  0.50000000  0.17994131
   0.40655022  0.00000000  0.82003152
   0.90872986  0.50000000  0.82454905
   0.09160234  0.00000000  0.42579321
   0.59371417  0.50000000  0.42938436
   0.90614778  0.00000000  0.57190262
   0.40665168  0.50000000  0.57383096
   0.76444823  0.00000000  0.38024350
   0.26347171  0.50000000  0.37714630
   0.23262111  0.00000000  0.62376442
   0.73698807  0.50000000  0.63288452
   0.42527132  0.00000000  0.31630175
   0.92638824  0.50000000  0.32128839
   0.57724919  0.00000000  0.68923133
   0.07448427  0.50000000  0.68724070
   0.92286119  0.00000000  0.06958858
   0.40573514  0.50000000  0.07460587
   0.10134489  0.00000000  0.92374301
   0.58565839  0.50000000  0.92511097
unknown system                          
           1
    12.824173    0.000000   -0.729946
     0.000000    3.153211    0.000000
    -0.070610    0.000000    9.888432
   Sr   Ir   O 
   3  10  20
Direct configuration=    21
   0.24657072  0.00000000  0.18587598
   0.74831348  0.00000000  0.84421215
   0.25204836  0.50000000  0.81599176
   0.00724192  0.50000000 -0.00267044
   0.49865966  0.00000000  0.00402747