   28   28  901    2
  0.1567104E+02  0.5211592E-09  0.5390667E-09  0.1562102E-08  0.5000000E-15
  1.000000000000000E-004
  CAR 
 SrIr2O4 prototype                       
    208     20    136
 
  0.3742002E-15  0.3742002E-15  0.1262379E-14  0.3125000E-01
    1      -30.625712    -30.624988   1.000000   1.000000
    2      -30.610097    -30.609419   1.000000   1.000000
    3      -30.610065    -30.609387   1.000000   1.000000
    4      -30.594349    -30.593718   1.000000   1.000000
    5      -17.341106    -17.323302   1.000000   1.000000
    6      -17.250353    -17.235899   1.000000   1.000000
    7      -17.250224    -17.235777   1.000000   1.000000
    8      -17.169563    -17.158443   1.000000   1.000000
    9      -16.125989    -16.072961   1.000000   1.000000
   10      -16.053342    -15.993600   1.000000   1.000000
   11      -16.053323    -15.993549   1.000000   1.000000
   12      -15.953591    -15.886110   1.000000   1.000000
   13      -15.805078    -15.804371   1.000000   1.000000
   14      -15.752834    -15.752544   1.000000   1.000000
   15      -15.752690    -15.752400   1.000000   1.000000
   16      -15.700283    -15.700217   1.000000   1.000000
   17      -15.529551    -15.459421   1.000000   1.000000
   18      -15.354535    -15.280145   1.000000   1.000000
   19      -15.354474    -15.280035   1.000000   1.000000
   20      -15.147493    -15.066529   1.000000   1.000000
   21      -12.834724    -12.834187   1.000000   1.000000
   22      -12.778397    -12.774882   1.000000   1.000000
   23      -12.767399    -12.766938   1.000000   1.000000
   24      -12.767381    -12.766920   1.000000   1.000000
   25      -12.703304    -12.702910   1.000000   1.000000
   26      -12.679566    -12.676964   1.000000   1.000000
   27      -12.526961    -12.519243   1.000000   1.000000
   28      -12.526945    -12.519226   1.000000   1.000000
   29      -12.444856    -12.436597   1.000000   1.000000
   30      -12.444833    -12.436573   1.000000   1.000000
   31      -12.334723    -12.324313   1.000000   1.000000
   32      -12.191180    -12.179398   1.000000   1.000000
   33       -6.409106     -6.395950   1.000000   1.000000
   34       -6.394849     -6.381296   1.000000   1.000000
   35       -6.394637     -6.381095   1.000000   1.000000
   36       -6.381993     -6.368054   1.000000   1.000000
   37       -5.361273     -5.316572   1.000000   1.000000
   38       -5.320183     -5.275868   1.000000   1.000000
   39       -5.320057     -5.275775   1.000000   1.000000
   40       -5.279241     -5.235331   1.000000   1.000000
   41       -4.380916     -4.357839   1.000000   1.000000
   42       -4.148523     -4.125535   1.000000   1.000000
   43       -4.148406     -4.125437   1.000000   1.000000
   44       -3.917586     -3.894366   1.000000   1.000000
   45       -2.789372     -2.774957   1.000000   1.000000
   46       -2.763786     -2.748895   1.000000   1.000000
   47       -2.763635     -2.748753   1.000000   1.000000
   48       -2.698264     -2.682789   1.000000   1.000000
   49       -2.255061     -2.121134   1.000000   1.000000
   50       -2.209739     -2.121054   1.000000   1.000000
   51       -2.209731     -2.120628   1.000000   1.000000
   52       -2.138500     -2.119341   1.000000   1.000000
   53       -2.027108     -2.001616   1.000000   1.000000
   54       -2.027080     -2.001610   1.000000   1.000000
   55       -1.998262     -1.988984   1.000000   1.000000
   56       -1.990186     -1.980811   1.000000   1.000000
   57       -1.986679     -1.904234   1.000000   1.000000
   58       -1.926709     -1.880971   1.000000   1.000000
   59       -1.915343     -1.854256   1.000000   1.000000
   60       -1.898179     -1.853250   1.000000   1.000000
   61       -1.898118     -1.853182   1.000000   1.000000
   62       -1.474739     -1.441764   1.000000   1.000000
   63       -1.474638     -1.441676   1.000000   1.000000
   64       -0.853538     -0.835766   1.000000   1.000000
   65       -0.417019     -0.323855   1.000000   1.000000
   66       -0.118346     -0.015524   1.000000   1.000000
   67       -0.118289     -0.015463   1.000000   1.000000
   68        0.271896      0.317522   1.000000   1.000000
   69        0.284108      0.355376   1.000000   1.000000
   70        0.343180      0.378014   1.000000   1.000000
   71        0.358784      0.378126   1.000000   1.000000
   72        0.358911      0.387612   1.000000   1.000000
   73        0.370930      0.416640   1.000000   1.000000
   74        0.528050      0.569288   1.000000   1.000000
   75        0.540336      0.570021   1.000000   1.000000
   76        0.598088      0.644441   1.000000   1.000000
   77        0.598188      0.644503   1.000000   1.000000
   78        0.621721      0.661520   1.000000   1.000000
   79        0.626178      0.661574   1.000000   1.000000
   80        0.626220      0.670263   1.000000   1.000000
   81        0.677718      0.714088   1.000000   1.000000
   82        0.705993      0.739655   1.000000   1.000000
   83        0.766800      0.816175   1.000000   1.000000
   84        0.778471      0.816253   1.000000   1.000000
   85        0.778529      0.821168   1.000000   1.000000
   86        0.869163      0.908633   1.000000   1.000000
   87        1.181137      1.265874   1.000000   1.000000
   88        1.201506      1.303633   1.000000   1.000000
   89        1.201566      1.303656   1.000000   1.000000
   90        1.225973      1.318941   1.000000   1.000000
   91        1.259344      1.347404   1.000000   1.000000
   92        1.259359      1.347463   1.000000   1.000000
   93        1.272309      1.417035   1.000000   1.000000
   94        1.379067      1.425062   1.000000   1.000000
   95        1.379122      1.425121   1.000000   1.000000
   96        1.471900      1.511743   1.000000   1.000000
   97        1.471940      1.511757   1.000000   1.000000
   98        1.478036      1.522121   1.000000   1.000000
   99        2.311944      2.361380   1.000000   1.000000
  100        2.700874      2.753887   1.000000   1.000000
  101        3.526322      3.679722   1.047988   0.599250
  102        3.556938      3.707286   1.023152   0.454213
  103        3.557003      3.707467   1.023069   0.453264
  104        3.585511      3.734816   0.972318   0.313326
  105        4.214586      4.305393   0.001610   0.000254
  106        4.293038      4.391771   0.000339   0.000026
  107        4.293195      4.391989   0.000338   0.000026
  108        4.369711      4.474643   0.000048   0.000002
  109        4.558024      4.591563   0.000000   0.000000
  110        4.593712      4.627699   0.000000   0.000000
  111        4.593733      4.627702   0.000000   0.000000
  112        4.628972      4.663582   0.000000   0.000000
  113        5.324372      5.378413   0.000000   0.000000
  114        5.335750      5.386163   0.000000   0.000000
  115        5.335898      5.386272   0.000000   0.000000
  116        5.368102      5.409106   0.000000   0.000000
  117        5.401794      5.415715   0.000000   0.000000
  118        6.584987      6.606152   0.000000   0.000000
  119        7.120362      7.147236   0.000000   0.000000
  120        7.120365      7.147242   0.000000   0.000000
  121        7.226505      7.253512   0.000000   0.000000
  122        7.663672      7.679643   0.000000   0.000000
  123        7.663712      7.679683   0.000000   0.000000
  124        9.393620      9.396179   0.000000   0.000000
  125        9.438281      9.447293   0.000000   0.000000
  126        9.728437      9.738935   0.000000   0.000000
  127        9.728530      9.739030   0.000000   0.000000
  128        9.801504      9.839407   0.000000   0.000000
  129        9.841618      9.850365   0.000000   0.000000
  130        9.841642      9.850393   0.000000   0.000000
  131        9.913685      9.920950   0.000000   0.000000
  132       10.076233     10.087060   0.000000   0.000000
  133       10.231574     10.250247   0.000000   0.000000
  134       10.231675     10.250341   0.000000   0.000000
  135       10.258536     10.270860   0.000000   0.000000
  136       10.504811     10.549818   0.000000   0.000000
 
  0.2500000E+00  0.3751906E-15  0.1262378E-14  0.6250000E-01
    1      -30.624856    -30.624136   1.000000   1.000000
    2      -30.609733    -30.609057   1.000000   1.000000
    3      -30.609701    -30.609025   1.000000   1.000000
    4      -30.594485    -30.593853   1.000000   1.000000
    5      -17.141975    -17.124772   1.000000   1.000000
    6      -17.061763    -17.048165   1.000000   1.000000
    7      -17.061635    -17.048044   1.000000   1.000000
    8      -16.996712    -16.986412   1.000000   1.000000
    9      -16.092925    -16.058050   1.000000   1.000000
   10      -16.049869    -16.026865   1.000000   1.000000
   11      -16.049792    -16.026776   1.000000   1.000000
   12      -16.031565    -16.025958   1.000000   1.000000
   13      -15.923939    -15.871411   1.000000   1.000000
   14      -15.910695    -15.871394   1.000000   1.000000
   15      -15.910627    -15.863772   1.000000   1.000000
   16      -15.883600    -15.860983   1.000000   1.000000
   17      -15.591288    -15.519735   1.000000   1.000000
   18      -15.507140    -15.434145   1.000000   1.000000
   19      -15.507089    -15.434047   1.000000   1.000000
   20      -15.352004    -15.273480   1.000000   1.000000
   21      -12.831137    -12.830669   1.000000   1.000000
   22      -12.776259    -12.775766   1.000000   1.000000
   23      -12.776240    -12.775747   1.000000   1.000000
   24      -12.770893    -12.767390   1.000000   1.000000
   25      -12.723309    -12.722812   1.000000   1.000000
   26      -12.686981    -12.684287   1.000000   1.000000
   27      -12.538498    -12.531239   1.000000   1.000000
   28      -12.538466    -12.531207   1.000000   1.000000
   29      -12.428305    -12.419876   1.000000   1.000000
   30      -12.428265    -12.419838   1.000000   1.000000
   31      -12.281814    -12.270226   1.000000   1.000000
   32      -12.232109    -12.221711   1.000000   1.000000
   33       -5.831045     -5.818010   1.000000   1.000000
   34       -5.819220     -5.805719   1.000000   1.000000
   35       -5.819024     -5.805533   1.000000   1.000000
   36       -5.808383     -5.794434   1.000000   1.000000
   37       -4.899519     -4.855856   1.000000   1.000000
   38       -4.867062     -4.823883   1.000000   1.000000
   39       -4.866963     -4.823817   1.000000   1.000000
   40       -4.835302     -4.792649   1.000000   1.000000
   41       -4.012977     -3.989188   1.000000   1.000000
   42       -3.840488     -3.816673   1.000000   1.000000
   43       -3.840369     -3.816572   1.000000   1.000000
   44       -3.670655     -3.647243   1.000000   1.000000
   45       -2.802679     -2.790014   1.000000   1.000000
   46       -2.802542     -2.789883   1.000000   1.000000
   47       -2.791291     -2.781616   1.000000   1.000000
   48       -2.787588     -2.775144   1.000000   1.000000
   49       -2.698652     -2.684460   1.000000   1.000000
   50       -2.669592     -2.652426   1.000000   1.000000
   51       -2.669534     -2.652361   1.000000   1.000000
   52       -2.617269     -2.592252   1.000000   1.000000
   53       -2.535111     -2.506716   1.000000   1.000000
   54       -2.509870     -2.493505   1.000000   1.000000
   55       -2.503142     -2.480384   1.000000   1.000000
   56       -2.503074     -2.480321   1.000000   1.000000
   57       -2.163773     -2.099593   1.000000   1.000000
   58       -2.039206     -1.907716   1.000000   1.000000
   59       -2.003801     -1.879662   1.000000   1.000000
   60       -2.003742     -1.879618   1.000000   1.000000
   61       -1.864961     -1.765754   1.000000   1.000000
   62       -1.695795     -1.663194   1.000000   1.000000
   63       -1.695688     -1.663103   1.000000   1.000000
   64       -1.275418     -1.260610   1.000000   1.000000
   65       -1.057492     -1.022216   1.000000   1.000000
   66       -1.054416     -1.020685   1.000000   1.000000
   67       -1.042327     -1.008142   1.000000   1.000000
   68       -1.042214     -1.008048   1.000000   1.000000
   69       -0.988120     -0.883038   1.000000   1.000000
   70       -0.783373     -0.667329   1.000000   1.000000
   71       -0.783297     -0.667264   1.000000   1.000000
   72       -0.459936     -0.319270   1.000000   1.000000
   73        0.194600      0.223404   1.000000   1.000000
   74        0.266524      0.297195   1.000000   1.000000
   75        0.266609      0.297260   1.000000   1.000000
   76        0.278146      0.306130   1.000000   1.000000
   77        0.440644      0.473759   1.000000   1.000000
   78        0.733097      0.771062   1.000000   1.000000
   79        0.867978      0.895104   1.000000   1.000000
   80        0.910572      0.940257   1.000000   1.000000
   81        0.910617      0.940326   1.000000   1.000000
   82        0.991847      1.022485   1.000000   1.000000
   83        1.197341      1.246793   1.000000   1.000000
   84        1.197372      1.246818   1.000000   1.000000
   85        1.418757      1.457134   1.000000   1.000000
   86        1.418795      1.457160   1.000000   1.000000
   87        1.489712      1.575148   1.000000   1.000000
   88        1.756981      1.842703   1.000000   1.000000
   89        1.757008      1.842750   1.000000   1.000000
   90        1.788546      1.880289   1.000000   1.000000
   91        1.864241      1.958384   1.000000   1.000000
   92        1.985346      2.032299   1.000000   1.000000
   93        1.992274      2.065763   1.000000   1.000000
   94        1.992336      2.065797   1.000000   1.000000
   95        2.042455      2.093301   1.000000   1.000000
   96        2.094425      2.163654   1.000000   1.000000
   97        2.094469      2.163685   1.000000   1.000000
   98        2.139611      2.233119   1.000000   1.000000
   99        2.415781      2.464388   1.000000   1.000000
  100        2.660155      2.716262   1.000000   1.000000
  101        3.427241      3.568360   1.022868   1.006366
  102        3.590671      3.765197   0.959894   0.176452
  103        3.590714      3.765352   0.959787   0.175826
  104        3.661436      3.841693   0.691474  -0.024901
  105        3.962270      4.029754  -0.026496  -0.001822
  106        4.106888      4.150071   0.004922   0.003817
  107        4.106926      4.150142   0.004922   0.003814
  108        4.140935      4.185942   0.004141   0.002495
  109        4.178911      4.217946   0.002744   0.001521
  110        4.218348      4.265079   0.001511   0.000624
  111        4.218383      4.265154   0.001510   0.000623
  112        4.306112      4.357221   0.000250   0.000068
  113        5.672407      5.720211   0.000000   0.000000
  114        5.811659      5.866177   0.000000   0.000000
  115        5.811716      5.866195   0.000000   0.000000
  116        5.844827      5.898966   0.000000   0.000000
  117        6.266938      6.295902   0.000000   0.000000
  118        6.752085      6.771617   0.000000   0.000000
  119        7.518930      7.542183   0.000000   0.000000
  120        7.518942      7.542193   0.000000   0.000000
  121        7.762881      7.785188   0.000000   0.000000
  122        8.006452      8.025131   0.000000   0.000000
  123        8.006503      8.025184   0.000000   0.000000
  124        9.044849      9.054992   0.000000   0.000000
  125        9.385548      9.398049   0.000000   0.000000
  126        9.385662      9.398162   0.000000   0.000000
  127        9.396219      9.405037   0.000000   0.000000
  128        9.459081      9.474531   0.000000   0.000000
  129        9.701214      9.715037   0.000000   0.000000
  130        9.701307      9.715133   0.000000   0.000000
  131        9.778656      9.832292   0.000000   0.000000
  132        9.802093      9.854868   0.000000   0.000000
  133        9.802252      9.855066   0.000000   0.000000
  134        9.868300      9.923827   0.000000   0.000000
  135        9.949020      9.958937   0.000000   0.000000
  136       10.175970     10.190087   0.000000   0.000000
 
  0.5000000E+00  0.3765488E-15  0.1262379E-14  0.3125000E-01
    1      -30.623997    -30.623281   1.000000   1.000000
    2      -30.609371    -30.608696   1.000000   1.000000
    3      -30.609339    -30.608664   1.000000   1.000000
    4      -30.594615    -30.593982   1.000000   1.000000
    5      -16.727777    -16.707770   1.000000   1.000000
    6      -16.611324    -16.596813   1.000000   1.000000
    7      -16.611228    -16.596722   1.000000   1.000000
    8      -16.563448    -16.557625   1.000000   1.000000
    9      -16.512839    -16.508104   1.000000   1.000000
   10      -16.512684    -16.507949   1.000000   1.000000
   11      -16.512590    -16.503768   1.000000   1.000000
   12      -16.462027    -16.458098   1.000000   1.000000
   13      -15.925126    -15.858474   1.000000   1.000000
   14      -15.810856    -15.761633   1.000000   1.000000
   15      -15.805108    -15.738928   1.000000   1.000000
   16      -15.805049    -15.738866   1.000000   1.000000
   17      -15.713671    -15.650238   1.000000   1.000000
   18      -15.713604    -15.650161   1.000000   1.000000
   19      -15.623658    -15.553634   1.000000   1.000000
   20      -15.614214    -15.538105   1.000000   1.000000
   21      -12.827755    -12.827343   1.000000   1.000000
   22      -12.784175    -12.783672   1.000000   1.000000
   23      -12.784155    -12.783652   1.000000   1.000000
   24      -12.763128    -12.759629   1.000000   1.000000
   25      -12.742431    -12.741842   1.000000   1.000000
   26      -12.694017    -12.691222   1.000000   1.000000
   27      -12.544970    -12.538050   1.000000   1.000000
   28      -12.544930    -12.538011   1.000000   1.000000
   29      -12.418574    -12.410069   1.000000   1.000000
   30      -12.418524    -12.410020   1.000000   1.000000
   31      -12.271379    -12.262312   1.000000   1.000000
   32      -12.235088    -12.222615   1.000000   1.000000
   33       -4.434636     -4.417903   1.000000   1.000000
   34       -4.430425     -4.414635   1.000000   1.000000
   35       -4.430236     -4.414458   1.000000   1.000000
   36       -4.422460     -4.407463   1.000000   1.000000
   37       -4.415363     -4.404985   1.000000   1.000000
   38       -4.396222     -4.385277   1.000000   1.000000
   39       -4.396100     -4.385166   1.000000   1.000000
   40       -4.379295     -4.367998   1.000000   1.000000
   41       -3.945250     -3.914387   1.000000   1.000000
   42       -3.889870     -3.857398   1.000000   1.000000
   43       -3.889830     -3.857382   1.000000   1.000000
   44       -3.824896     -3.790706   1.000000   1.000000
   45       -3.711866     -3.670742   1.000000   1.000000
   46       -3.650883     -3.609362   1.000000   1.000000
   47       -3.650839     -3.609344   1.000000   1.000000
   48       -3.589802     -3.547994   1.000000   1.000000
   49       -3.086991     -3.059276   1.000000   1.000000
   50       -2.897416     -2.870035   1.000000   1.000000
   51       -2.897349     -2.869988   1.000000   1.000000
   52       -2.721676     -2.691344   1.000000   1.000000
   53       -2.665833     -2.638004   1.000000   1.000000
   54       -2.665699     -2.637885   1.000000   1.000000
   55       -2.661754     -2.633935   1.000000   1.000000
   56       -2.649984     -2.624958   1.000000   1.000000
   57       -2.434446     -2.407931   1.000000   1.000000
   58       -2.229983     -2.217274   1.000000   1.000000
   59       -2.217635     -2.198192   1.000000   1.000000
   60       -2.217540     -2.198108   1.000000   1.000000
   61       -2.098464     -2.084947   1.000000   1.000000
   62       -2.098403     -2.084895   1.000000   1.000000
   63       -2.064832     -2.050529   1.000000   1.000000
   64       -1.887037     -1.871877   1.000000   1.000000
   65       -1.845373     -1.731116   1.000000   1.000000
   66       -1.673877     -1.538717   1.000000   1.000000
   67       -1.638191     -1.508373   1.000000   1.000000
   68       -1.638123     -1.508293   1.000000   1.000000
   69       -1.413288     -1.276785   1.000000   1.000000
   70       -1.386636     -1.252627   1.000000   1.000000
   71       -1.386523     -1.252523   1.000000   1.000000
   72       -1.067529     -0.923551   1.000000   1.000000
   73        0.429352      0.453949   1.000000   1.000000
   74        0.446521      0.473373   1.000000   1.000000
   75        0.527643      0.553999   1.000000   1.000000
   76        0.527668      0.554026   1.000000   1.000000
   77        0.578239      0.611551   1.000000   1.000000
   78        0.586784      0.614716   1.000000   1.000000
   79        0.586850      0.614766   1.000000   1.000000
   80        0.644792      0.672989   1.000000   1.000000
   81        0.667955      0.694820   1.000000   1.000000
   82        0.804819      0.842032   1.000000   1.000000
   83        1.246394      1.288360   1.000000   1.000000
   84        1.246406      1.288367   1.000000   1.000000
   85        1.447024      1.486037   1.000000   1.000000
   86        1.447059      1.486064   1.000000   1.000000
   87        2.194417      2.287100   1.000000   1.000000
   88        2.386654      2.436346   1.000000   1.000000
   89        2.524687      2.575906   1.000000   1.000000
   90        2.585048      2.688889   1.000000   1.000000
   91        2.624805      2.737648   1.000000   1.000000
   92        2.624839      2.737677   1.000000   1.000000
   93        2.770922      2.897299   1.000000   0.999999
   94        2.779309      2.902117   1.000000   0.999999
   95        2.779347      2.902163   1.000000   0.999999
   96        2.895079      2.998541   0.999999   0.999979
   97        3.018169      3.076059   0.999963   0.999826
   98        3.021220      3.112029   0.999959   0.999595
   99        3.121965      3.188313   0.999497   0.998234
  100        3.121992      3.188315   0.999497   0.998234
  101        3.159164      3.229423   0.998937   0.996846
  102        3.159202      3.229489   0.998936   0.996844
  103        3.241421      3.310023   0.996396   0.995271
  104        3.241634      3.320452   0.996388   0.995691
  105        3.259632      3.357615   0.995747   0.999842
  106        3.319910      3.386649   0.995662   1.006907
  107        3.319940      3.386678   0.995664   1.006916
  108        3.399141      3.445587   1.011117   1.031597
  109        3.412000      3.461059   1.016147   1.038880
  110        3.427751      3.475219   1.023104   1.044812
  111        3.427774      3.475272   1.023114   1.044832
  112        3.448889      3.497714   1.033183   1.050949
  113        6.458538      6.488678   0.000000   0.000000
  114        7.187944      7.202850   0.000000   0.000000
  115        7.620587      7.671031   0.000000   0.000000
  116        7.620657      7.671106   0.000000   0.000000
  117        7.651833      7.704688   0.000000   0.000000
  118        7.802633      7.861678   0.000000   0.000000
  119        7.819203      7.879724   0.000000   0.000000
  120        7.819217      7.879738   0.000000   0.000000
  121        7.850589      7.906443   0.000000   0.000000
  122        7.890280      7.953427   0.000000   0.000000
  123        8.059151      8.088182   0.000000   0.000000
  124        8.059223      8.088249   0.000000   0.000000
  125        8.438995      8.452552   0.000000   0.000000
  126        8.600787      8.618023   0.000000   0.000000
  127        8.600826      8.618063   0.000000   0.000000
  128        8.953559      8.967693   0.000000   0.000000
  129        9.111578      9.131931   0.000000   0.000000
  130        9.199449      9.207660   0.000000   0.000000
  131        9.199503      9.207712   0.000000   0.000000
  132        9.677693      9.688284   0.000000   0.000000
  133        9.682888      9.698356   0.000000   0.000000
  134        9.682952      9.698427   0.000000   0.000000
  135        9.786948      9.802159   0.000000   0.000000
  136        9.787002      9.802217   0.000000   0.000000
 
  0.3745644E-15  0.2500000E+00  0.1262379E-14  0.6250000E-01
    1      -30.625013    -30.624293   1.000000   1.000000
    2      -30.609805    -30.609129   1.000000   1.000000
    3      -30.609773    -30.609097   1.000000   1.000000
    4      -30.594469    -30.593838   1.000000   1.000000
    5      -17.147372    -17.129960   1.000000   1.000000
    6      -17.067007    -17.053188   1.000000   1.000000
    7      -17.066877    -17.053066   1.000000   1.000000
    8      -17.001760    -16.991204   1.000000   1.000000
    9      -16.096367    -16.063806   1.000000   1.000000
   10      -16.054333    -16.037138   1.000000   1.000000
   11      -16.054255    -16.034767   1.000000   1.000000
   12      -16.041874    -16.034675   1.000000   1.000000
   13      -15.921484    -15.873572   1.000000   1.000000
   14      -15.918437    -15.873551   1.000000   1.000000
   15      -15.918376    -15.867354   1.000000   1.000000
   16      -15.891007    -15.855222   1.000000   1.000000
   17      -15.573283    -15.504402   1.000000   1.000000
   18      -15.485761    -15.415094   1.000000   1.000000
   19      -15.485710    -15.414996   1.000000   1.000000
   20      -15.331992    -15.255144   1.000000   1.000000
   21      -12.832264    -12.831751   1.000000   1.000000
   22      -12.775788    -12.775294   1.000000   1.000000
   23      -12.775769    -12.775275   1.000000   1.000000
   24      -12.770050    -12.766572   1.000000   1.000000
   25      -12.721976    -12.721486   1.000000   1.000000
   26      -12.685670    -12.682989   1.000000   1.000000
   27      -12.538542    -12.531264   1.000000   1.000000
   28      -12.538509    -12.531231   1.000000   1.000000
   29      -12.428051    -12.419632   1.000000   1.000000
   30      -12.428007    -12.419589   1.000000   1.000000
   31      -12.282613    -12.271022   1.000000   1.000000
   32      -12.232066    -12.221649   1.000000   1.000000
   33       -5.834103     -5.821230   1.000000   1.000000
   34       -5.822217     -5.808887   1.000000   1.000000
   35       -5.822019     -5.808699   1.000000   1.000000
   36       -5.811343     -5.797568   1.000000   1.000000
   37       -4.908426     -4.864834   1.000000   1.000000
   38       -4.877682     -4.834563   1.000000   1.000000
   39       -4.877578     -4.834491   1.000000   1.000000
   40       -4.846681     -4.804089   1.000000   1.000000
   41       -4.020794     -3.996805   1.000000   1.000000
   42       -3.841872     -3.817929   1.000000   1.000000
   43       -3.841755     -3.817831   1.000000   1.000000
   44       -3.665069     -3.641592   1.000000   1.000000
   45       -2.804422     -2.793543   1.000000   1.000000
   46       -2.804309     -2.793432   1.000000   1.000000
   47       -2.799739     -2.790872   1.000000   1.000000
   48       -2.776247     -2.766909   1.000000   1.000000
   49       -2.706202     -2.690019   1.000000   1.000000
   50       -2.694867     -2.674551   1.000000   1.000000
   51       -2.694795     -2.674472   1.000000   1.000000
   52       -2.674508     -2.646009   1.000000   1.000000
   53       -2.564551     -2.535458   1.000000   1.000000
   54       -2.519863     -2.497218   1.000000   1.000000
   55       -2.519767     -2.497130   1.000000   1.000000
   56       -2.503383     -2.488073   1.000000   1.000000
   57       -2.154061     -2.097246   1.000000   1.000000
   58       -2.041161     -1.908214   1.000000   1.000000
   59       -1.988778     -1.865992   1.000000   1.000000
   60       -1.988716     -1.865956   1.000000   1.000000
   61       -1.862462     -1.755287   1.000000   1.000000
   62       -1.715612     -1.680820   1.000000   1.000000
   63       -1.715509     -1.680734   1.000000   1.000000
   64       -1.287741     -1.271236   1.000000   1.000000
   65       -1.121961     -1.090837   1.000000   1.000000
   66       -1.121719     -1.089952   1.000000   1.000000
   67       -1.107766     -1.074952   1.000000   1.000000
   68       -1.107674     -1.074883   1.000000   1.000000
   69       -0.971366     -0.864358   1.000000   1.000000
   70       -0.756343     -0.640513   1.000000   1.000000
   71       -0.756274     -0.640449   1.000000   1.000000
   72       -0.437246     -0.297260   1.000000   1.000000
   73        0.367755      0.396584   1.000000   1.000000
   74        0.383607      0.416818   1.000000   1.000000
   75        0.425651      0.455669   1.000000   1.000000
   76        0.425666      0.455689   1.000000   1.000000
   77        0.446149      0.473298   1.000000   1.000000
   78        0.754794      0.792853   1.000000   1.000000
   79        0.893071      0.922043   1.000000   1.000000
   80        0.915838      0.948092   1.000000   1.000000
   81        0.915935      0.948209   1.000000   1.000000
   82        0.993661      1.025100   1.000000   1.000000
   83        1.169291      1.213871   1.000000   1.000000
   84        1.169322      1.213902   1.000000   1.000000
   85        1.450104      1.489450   1.000000   1.000000
   86        1.450125      1.489462   1.000000   1.000000
   87        1.510863      1.594712   1.000000   1.000000
   88        1.773661      1.862608   1.000000   1.000000
   89        1.773702      1.862621   1.000000   1.000000
   90        1.822117      1.913411   1.000000   1.000000
   91        1.845193      1.935587   1.000000   1.000000
   92        1.936455      1.980703   1.000000   1.000000
   93        1.968523      2.030808   1.000000   1.000000
   94        1.968564      2.030840   1.000000   1.000000
   95        2.012047      2.068188   1.000000   1.000000
   96        2.056727      2.135944   1.000000   1.000000
   97        2.056794      2.135983   1.000000   1.000000
   98        2.116823      2.213127   1.000000   1.000000
   99        2.424782      2.472424   1.000000   1.000000
  100        2.653636      2.710226   1.000000   1.000000
  101        3.449527      3.593184   1.033489   0.953473