       N       E                     dE             d eps       ncg     rms          rms(c)
DAV:   1     0.183039479618E+04    0.18304E+04   -0.86962E+04 10928   0.119E+03
DAV:   2     0.252500992432E+02   -0.18051E+04   -0.16893E+04 11224   0.373E+02
DAV:   3    -0.210266564182E+03   -0.23552E+03   -0.22697E+03 14728   0.137E+02
DAV:   4    -0.221745237252E+03   -0.11479E+02   -0.11362E+02 14864   0.306E+01
DAV:   5    -0.222407340233E+03   -0.66210E+00   -0.66110E+00 18232   0.550E+00    0.128E+02
RMM:   6    -0.189795990437E+03    0.32611E+02   -0.19477E+02 11186   0.345E+01    0.564E+01
RMM:   7    -0.190586864129E+03   -0.79087E+00   -0.26847E+01 11209   0.135E+01    0.425E+01
RMM:   8    -0.198599150602E+03   -0.80123E+01   -0.28441E+01 10950   0.138E+01    0.363E+01
RMM:   9    -0.186059003744E+03    0.12540E+02   -0.78442E+00 10954   0.778E+00    0.969E+00
RMM:  10    -0.186024827902E+03    0.34176E-01   -0.13606E+00 12054   0.267E+00    0.467E+00
RMM:  11    -0.186266562846E+03   -0.24173E+00   -0.26116E-01 12275   0.117E+00    0.389E+00
RMM:  12    -0.186390963111E+03   -0.12440E+00   -0.12004E-01 11724   0.818E-01    0.267E+00
RMM:  13    -0.186538200788E+03   -0.14724E+00   -0.14829E-01 11363   0.869E-01    0.216E+00
RMM:  14    -0.186555485918E+03   -0.17285E-01   -0.50266E-02 11435   0.500E-01    0.113E+00
RMM:  15    -0.186561972101E+03   -0.64862E-02   -0.20235E-02 11655   0.331E-01    0.384E-01
RMM:  16    -0.186565396030E+03   -0.34239E-02   -0.54819E-03 12137   0.177E-01    0.481E-01
RMM:  17    -0.186565349519E+03    0.46511E-04   -0.16763E-03 12718   0.912E-02    0.273E-01
RMM:  18    -0.186565789178E+03   -0.43966E-03   -0.92024E-04 12496   0.675E-02    0.257E-01
RMM:  19    -0.186565710765E+03    0.78413E-04   -0.44273E-04 12152   0.495E-02    0.159E-01
RMM:  20    -0.186565767970E+03   -0.57205E-04   -0.15944E-04 13019   0.286E-02    0.106E-01
RMM:  21    -0.186565903838E+03   -0.13587E-03   -0.13744E-04 12221   0.281E-02    0.946E-02
RMM:  22    -0.186565982810E+03   -0.78972E-04   -0.81466E-05 11961   0.229E-02    0.100E-01
RMM:  23    -0.186565996440E+03   -0.13630E-04   -0.62219E-05 11816   0.204E-02    0.597E-02
RMM:  24    -0.186566007647E+03   -0.11207E-04   -0.27430E-05 12232   0.131E-02    0.427E-02
RMM:  25    -0.186566012772E+03   -0.51254E-05   -0.22258E-05 11962   0.117E-02    0.163E-02
RMM:  26    -0.186566018640E+03   -0.58679E-05   -0.12052E-05 11841   0.900E-03    0.931E-03
RMM:  27    -0.186566021933E+03   -0.32926E-05   -0.84486E-06 11345   0.705E-03    0.713E-03
RMM:  28    -0.186566023434E+03   -0.15016E-05   -0.51571E-06 11327   0.564E-03    0.307E-03
RMM:  29    -0.186566024147E+03   -0.71283E-06   -0.16411E-06 11004   0.308E-03    0.194E-03
RMM:  30    -0.186566024365E+03   -0.21736E-06   -0.56173E-07  9079   0.183E-03    0.135E-03
RMM:  31    -0.186566024465E+03   -0.10072E-06   -0.35050E-07  8129   0.153E-03    0.932E-04
RMM:  32    -0.186566024512E+03   -0.46439E-07   -0.50351E-08  6377   0.879E-04
   1 F= -.18656602E+03 E0= -.18656431E+03  d E =-.186566E+03  mag=     1.0544
       N       E                     dE             d eps       ncg     rms          rms(c)
DAV:   1    -0.189455278824E+03   -0.28893E+01   -0.98498E+01 12296   0.359E+01    0.168E+01
RMM:   2    -0.186571697423E+03    0.28836E+01   -0.67323E+00 10880   0.779E+00    0.880E+00
RMM:   3    -0.186876482303E+03   -0.30478E+00   -0.29750E+00 10936   0.496E+00    0.955E+00
RMM:   4    -0.186242387763E+03    0.63409E+00   -0.69976E-01 11060   0.241E+00    0.335E+00
RMM:   5    -0.186271387913E+03   -0.29000E-01   -0.18185E-01 11338   0.112E+00    0.430E+00
RMM:   6    -0.186174338644E+03    0.97049E-01   -0.56560E-02 11299   0.668E-01    0.150E+00
RMM:   7    -0.186166865765E+03    0.74729E-02   -0.19315E-02 12300   0.357E-01    0.987E-01
RMM:   8    -0.186166693910E+03    0.17186E-03   -0.82323E-03 12765   0.231E-01    0.863E-01
RMM:   9    -0.186166429412E+03    0.26450E-03   -0.48348E-03 13461   0.159E-01    0.618E-01
RMM:  10    -0.186165377430E+03    0.10520E-02   -0.31159E-03 12807   0.140E-01    0.330E-01
RMM:  11    -0.186165265195E+03    0.11224E-03   -0.12740E-03 13512   0.814E-02    0.164E-01
RMM:  12    -0.186165395186E+03   -0.12999E-03   -0.47675E-04 14112   0.493E-02    0.191E-01
RMM:  13    -0.186165253991E+03    0.14120E-03   -0.21906E-04 13831   0.341E-02    0.627E-02
RMM:  14    -0.186165265729E+03   -0.11739E-04   -0.74936E-05 13980   0.199E-02    0.544E-02
RMM:  15    -0.186165262964E+03    0.27655E-05   -0.35000E-05 13697   0.133E-02    0.379E-02
RMM:  16    -0.186165269485E+03   -0.65213E-05   -0.17849E-05 14108   0.960E-03    0.244E-02
RMM:  17    -0.186165278882E+03   -0.93962E-05   -0.98923E-06 13863   0.723E-03    0.218E-02
RMM:  18    -0.186165293374E+03   -0.14493E-04   -0.19134E-05 11768   0.110E-02    0.191E-02
RMM:  19    -0.186165308422E+03   -0.15047E-04   -0.29824E-05 11059   0.143E-02    0.170E-02
RMM:  20    -0.186165317424E+03   -0.90024E-05   -0.15148E-05 11139   0.101E-02    0.139E-02
RMM:  21    -0.186165322722E+03   -0.52983E-05   -0.83403E-06 11220   0.709E-03    0.103E-02
RMM:  22    -0.186165326937E+03   -0.42142E-05   -0.13035E-05 10798   0.932E-03    0.872E-03
RMM:  23    -0.186165329313E+03   -0.23759E-05   -0.16628E-06 11204   0.425E-03    0.723E-03
RMM:  24    -0.186165330704E+03   -0.13917E-05   -0.12918E-06 10448   0.265E-03    0.692E-03
RMM:  25    -0.186165332745E+03   -0.20411E-05   -0.45840E-06 10432   0.562E-03    0.538E-03
RMM:  26    -0.186165334412E+03   -0.16668E-05   -0.36647E-06 10360   0.498E-03    0.406E-03
RMM:  27    -0.186165335508E+03   -0.10955E-05   -0.25697E-06 10333   0.399E-03    0.363E-03
RMM:  28    -0.186165336159E+03   -0.65124E-06   -0.11095E-06  9348   0.269E-03    0.328E-03
RMM:  29    -0.186165336281E+03   -0.12237E-06   -0.11567E-07  6649   0.126E-03    0.342E-03
RMM:  30    -0.186165336233E+03    0.48523E-07   -0.44355E-08  6357   0.814E-04
   2 F= -.18616534E+03 E0= -.18616122E+03  d E =0.400688E+00  mag=     1.0849
       N       E                     dE             d eps       ncg     rms          rms(c)
DAV:   1    -0.188596685514E+03   -0.24313E+01   -0.55933E+01 12272   0.268E+01    0.110E+01
RMM:   2    -0.186947066431E+03    0.16496E+01   -0.38032E+00 10884   0.585E+00    0.722E+00
RMM:   3    -0.187021578964E+03   -0.74513E-01   -0.12238E+00 10982   0.311E+00    0.682E+00
RMM:   4    -0.186853191126E+03    0.16839E+00   -0.55780E-01 10910   0.205E+00    0.469E+00
RMM:   5    -0.186713957797E+03    0.13923E+00   -0.11013E-01 11078   0.972E-01    0.196E+00
RMM:   6    -0.186711230296E+03    0.27275E-02   -0.25238E-02 11879   0.420E-01    0.184E+00
RMM:   7    -0.186697884972E+03    0.13345E-01   -0.12873E-02 12569   0.271E-01    0.708E-01
RMM:   8    -0.186697022393E+03    0.86258E-03   -0.42816E-03 14098   0.149E-01    0.422E-01
RMM:   9    -0.186697834310E+03   -0.81192E-03   -0.18429E-03 13455   0.969E-02    0.487E-01
RMM:  10    -0.186697149621E+03    0.68469E-03   -0.11064E-03 13312   0.804E-02    0.161E-01
RMM:  11    -0.186697207467E+03   -0.57845E-04   -0.60458E-04 13042   0.599E-02    0.151E-01
RMM:  12    -0.186697065447E+03    0.14202E-03   -0.22213E-04 12938   0.366E-02    0.594E-02
RMM:  13    -0.186697058513E+03    0.69339E-05   -0.47785E-05 14537   0.139E-02    0.412E-02
RMM:  14    -0.186697058612E+03   -0.98566E-07   -0.18777E-05 13901   0.893E-03    0.363E-02
RMM:  15    -0.186697053340E+03    0.52713E-05   -0.88237E-06 13598   0.704E-03    0.125E-02
RMM:  16    -0.186697053885E+03   -0.54514E-06   -0.35062E-06 13245   0.376E-03    0.110E-02
RMM:  17    -0.186697054342E+03   -0.45641E-06   -0.15544E-06 12139   0.262E-03    0.933E-03
RMM:  18    -0.186697055753E+03   -0.14114E-05   -0.14804E-06 11766   0.292E-03    0.914E-03
RMM:  19    -0.186697056724E+03   -0.97096E-06   -0.65393E-07  9766   0.193E-03    0.879E-03
RMM:  20    -0.186697059416E+03   -0.26914E-05   -0.40054E-06 10367   0.495E-03    0.937E-03
RMM:  21    -0.186697062735E+03   -0.33195E-05   -0.84289E-06 10459   0.724E-03    0.817E-03
RMM:  22    -0.186697066320E+03   -0.35848E-05   -0.16754E-05 10538   0.103E-02    0.824E-03
RMM:  23    -0.186697069752E+03   -0.34326E-05   -0.60775E-06 10788   0.631E-03    0.518E-03
RMM:  24    -0.186697071364E+03   -0.16114E-05   -0.27298E-06 10764   0.390E-03    0.472E-03
RMM:  25    -0.186697072316E+03   -0.95222E-06   -0.34076E-06 10262   0.456E-03    0.403E-03
RMM:  26    -0.186697073132E+03   -0.81591E-06   -0.10407E-06  9556   0.276E-03    0.298E-03
RMM:  27    -0.186697073615E+03   -0.48260E-06   -0.20560E-06  9961   0.353E-03    0.233E-03
RMM:  28    -0.186697074072E+03   -0.45766E-06   -0.16770E-06  9838   0.328E-03    0.196E-03
RMM:  29    -0.186697074427E+03   -0.35512E-06   -0.71933E-07  8753   0.214E-03    0.159E-03
RMM:  30    -0.186697074567E+03   -0.13939E-06   -0.15556E-07  6781   0.121E-03    0.128E-03
RMM:  31    -0.186697074605E+03   -0.38173E-07   -0.54821E-08  6215   0.807E-04
   3 F= -.18669707E+03 E0= -.18669527E+03  d E =-.131050E+00  mag=     1.1034
       N       E                     dE             d eps       ncg     rms          rms(c)
DAV:   1    -0.186750450663E+03   -0.53376E-01   -0.13320E+00 12392   0.417E+00    0.177E+00
RMM:   2    -0.186711787529E+03    0.38663E-01   -0.89330E-02 10880   0.895E-01    0.103E+00
RMM:   3    -0.186714982353E+03   -0.31948E-02   -0.34930E-02 10954   0.531E-01    0.109E+00
RMM:   4    -0.186708331089E+03    0.66513E-02   -0.11333E-02 11009   0.298E-01    0.543E-01
RMM:   5    -0.186706547057E+03    0.17840E-02   -0.23278E-03 11199   0.137E-01    0.240E-01
RMM:   6    -0.186706583858E+03   -0.36801E-04   -0.53617E-04 11510   0.651E-02    0.263E-01
RMM:   7    -0.186706277830E+03    0.30603E-03   -0.24512E-04 12133   0.400E-02    0.956E-02
RMM:   8    -0.186706271559E+03    0.62716E-05   -0.11145E-04 14100   0.238E-02    0.456E-02
RMM:   9    -0.186706287353E+03   -0.15794E-04   -0.36475E-05 14615   0.125E-02    0.358E-02
RMM:  10    -0.186706288348E+03   -0.99447E-06   -0.15051E-05 13701   0.912E-03    0.281E-02
RMM:  11    -0.186706288536E+03   -0.18816E-06   -0.69705E-06 14265   0.587E-03    0.133E-02
RMM:  12    -0.186706288586E+03   -0.49731E-07   -0.24923E-06 12262   0.367E-03    0.100E-02
RMM:  13    -0.186706288905E+03   -0.31925E-06   -0.79736E-07 10821   0.217E-03    0.408E-03
RMM:  14    -0.186706289117E+03   -0.21221E-06   -0.32025E-07  8090   0.138E-03    0.164E-03
RMM:  15    -0.186706289139E+03   -0.21642E-07   -0.16378E-07  6917   0.954E-04
   4 F= -.18670629E+03 E0= -.18670432E+03  d E =-.140265E+00  mag=     1.1176
       N       E                     dE             d eps       ncg     rms          rms(c)
DAV:   1    -0.186715573037E+03   -0.92839E-02   -0.23214E-01 12384   0.174E+00    0.733E-01
RMM:   2    -0.186708815404E+03    0.67576E-02   -0.15620E-02 10881   0.375E-01    0.438E-01
RMM:   3    -0.186709363545E+03   -0.54814E-03   -0.59314E-03 10949   0.218E-01    0.458E-01
RMM:   4    -0.186708232190E+03    0.11314E-02   -0.20585E-03 10959   0.126E-01    0.241E-01
RMM:   5    -0.186707880736E+03    0.35145E-03   -0.41708E-04 11164   0.582E-02    0.113E-01
RMM:   6    -0.186707871557E+03    0.91787E-05   -0.99421E-05 11446   0.279E-02    0.111E-01
RMM:   7    -0.186707813555E+03    0.58002E-04   -0.45044E-05 12065   0.171E-02    0.407E-02
RMM:   8    -0.186707807527E+03    0.60276E-05   -0.19306E-05 14072   0.992E-03    0.197E-02
RMM:   9    -0.186707806941E+03    0.58639E-06   -0.65980E-06 14348   0.534E-03    0.159E-02
RMM:  10    -0.186707805859E+03    0.10818E-05   -0.26784E-06 12947   0.386E-03    0.116E-02
RMM:  11    -0.186707804573E+03    0.12856E-05   -0.12291E-06 12587   0.250E-03    0.557E-03
RMM:  12    -0.186707804321E+03    0.25249E-06   -0.43525E-07  9286   0.162E-03    0.409E-03
RMM:  13    -0.186707803989E+03    0.33175E-06   -0.14948E-07  6989   0.116E-03    0.171E-03
RMM:  14    -0.186707803916E+03    0.73400E-07   -0.70220E-08  6462   0.778E-04
   5 F= -.18670780E+03 E0= -.18670593E+03  d E =-.141779E+00  mag=     1.1147
       N       E                     dE             d eps       ncg     rms          rms(c)
DAV:   1    -0.186709354182E+03   -0.15502E-02   -0.26133E-02 12408   0.584E-01    0.247E-01
RMM:   2    -0.186708593659E+03    0.76052E-03   -0.17514E-03 10880   0.125E-01    0.146E-01
RMM:   3    -0.186708658198E+03   -0.64539E-04   -0.67482E-04 10957   0.736E-02    0.153E-01
RMM:   4    -0.186708530463E+03    0.12774E-03   -0.22707E-04 10977   0.421E-02    0.789E-02
RMM:   5    -0.186708498415E+03    0.32048E-04   -0.46946E-05 11167   0.194E-02    0.440E-02
RMM:   6    -0.186708494585E+03    0.38298E-05   -0.11114E-05 11401   0.940E-03    0.342E-02
RMM:   7    -0.186708490454E+03    0.41310E-05   -0.50437E-06 12105   0.563E-03    0.132E-02
RMM:   8    -0.186708491341E+03   -0.88641E-06   -0.22199E-06 13628   0.329E-03    0.643E-03
RMM:   9    -0.186708492372E+03   -0.10315E-05   -0.64086E-07  9113   0.178E-03    0.482E-03
RMM:  10    -0.186708492639E+03   -0.26743E-06   -0.32951E-07  7840   0.159E-03    0.385E-03
RMM:  11    -0.186708492882E+03   -0.24242E-06   -0.13824E-07  6529   0.128E-03    0.179E-03
RMM:  12    -0.186708492939E+03   -0.56812E-07   -0.99606E-08  6517   0.926E-04
   6 F= -.18670849E+03 E0= -.18670659E+03  d E =-.142468E+00  mag=     1.1164
       N       E                     dE             d eps       ncg     rms          rms(c)
DAV:   1    -0.186889785916E+03   -0.18129E+00   -0.19504E+01 10960   0.153E+01    0.747E+00
RMM:   2    -0.186980013099E+03   -0.90227E-01   -0.10886E+00 10930   0.345E+00    0.764E+00
RMM:   3    -0.186722771303E+03    0.25724E+00   -0.47922E-01 11050   0.191E+00    0.475E+00
RMM:   4    -0.186586687424E+03    0.13608E+00   -0.13229E-01 10923   0.110E+00    0.122E+00
RMM:   5    -0.186609765184E+03   -0.23078E-01   -0.35432E-02 11314   0.496E-01    0.251E+00
RMM:   6    -0.186576707411E+03    0.33058E-01   -0.12623E-02 11172   0.310E-01    0.538E-01
RMM:   7    -0.186575477695E+03    0.12297E-02   -0.28879E-03 11855   0.150E-01    0.421E-01
RMM:   8    -0.186575073698E+03    0.40400E-03   -0.90356E-04 12355   0.753E-02    0.295E-01
RMM:   9    -0.186574904288E+03    0.16941E-03   -0.45948E-04 12724   0.524E-02    0.142E-01
RMM:  10    -0.186575081529E+03   -0.17724E-03   -0.41954E-04 12155   0.514E-02    0.148E-01
RMM:  11    -0.186575011937E+03    0.69592E-04   -0.20045E-04 12214   0.358E-02    0.775E-02
RMM:  12    -0.186575056237E+03   -0.44300E-04   -0.66963E-05 13544   0.189E-02    0.865E-02
RMM:  13    -0.186575058480E+03   -0.22428E-05   -0.29622E-05 12645   0.135E-02    0.567E-02
RMM:  14    -0.186575130076E+03   -0.71596E-04   -0.68757E-05 11380   0.217E-02    0.449E-02
RMM:  15    -0.186575185357E+03   -0.55281E-04   -0.60433E-05 11144   0.209E-02    0.307E-02
RMM:  16    -0.186575205935E+03   -0.20579E-04   -0.17957E-05 11383   0.116E-02    0.273E-02
RMM:  17    -0.186575211327E+03   -0.53913E-05   -0.89332E-06 11370   0.756E-03    0.164E-02
RMM:  18    -0.186575217183E+03   -0.58567E-05   -0.15606E-05 11078   0.101E-02    0.702E-03
RMM:  19    -0.186575218288E+03   -0.11044E-05   -0.16420E-06 11739   0.358E-03    0.365E-03
RMM:  20    -0.186575218485E+03   -0.19754E-06   -0.28472E-07  7679   0.128E-03    0.281E-03
RMM:  21    -0.186575218815E+03   -0.32998E-06   -0.27902E-07  7708   0.134E-03    0.266E-03
RMM:  22    -0.186575219020E+03   -0.20495E-06   -0.18691E-07  7070   0.129E-03    0.210E-03
RMM:  23    -0.186575219133E+03   -0.11290E-06   -0.11893E-07  6567   0.109E-03    0.134E-03
RMM:  24    -0.186575219168E+03   -0.34874E-07   -0.70178E-08  6341   0.839E-04
   7 F= -.18657522E+03 E0= -.18657347E+03  d E =0.133274E+00  mag=     1.4357
       N       E                     dE             d eps       ncg     rms          rms(c)
DAV:   1    -0.186933994960E+03   -0.35878E+00   -0.12586E+01 10968   0.122E+01    0.581E+00
RMM:   2    -0.187030362137E+03   -0.96367E-01   -0.73424E-01 10921   0.283E+00    0.645E+00
RMM:   3    -0.186817451289E+03    0.21291E+00   -0.31993E-01 11053   0.157E+00    0.393E+00
RMM:   4    -0.186731303881E+03    0.86147E-01   -0.91785E-02 10927   0.915E-01    0.111E+00
RMM:   5    -0.186727758585E+03    0.35453E-02   -0.16671E-02 11293   0.344E-01    0.961E-01
RMM:   6    -0.186726883405E+03    0.87518E-03   -0.68842E-03 11377   0.216E-01    0.842E-01
RMM:   7    -0.186723227999E+03    0.36554E-02   -0.24592E-03 11313   0.142E-01    0.201E-01
RMM:   8    -0.186723088136E+03    0.13986E-03   -0.41871E-04 13436   0.504E-02    0.137E-01
RMM:   9    -0.186723164774E+03   -0.76637E-04   -0.24990E-04 12430   0.390E-02    0.147E-01
RMM:  10    -0.186723141735E+03    0.23038E-04   -0.16573E-04 12473   0.324E-02    0.888E-02
RMM:  11    -0.186723126238E+03    0.15497E-04   -0.64677E-05 12250   0.206E-02    0.608E-02
RMM:  12    -0.186723115412E+03    0.10826E-04   -0.19168E-05 12486   0.114E-02    0.295E-02
RMM:  13    -0.186723130692E+03   -0.15280E-04   -0.11196E-05 12872   0.832E-03    0.233E-02
RMM:  14    -0.186723143878E+03   -0.13185E-04   -0.89208E-06 11847   0.775E-03    0.294E-02
RMM:  15    -0.186723146364E+03   -0.24868E-05   -0.58211E-06 11910   0.608E-03    0.135E-02
RMM:  16    -0.186723149673E+03   -0.33087E-05   -0.28680E-06 11299   0.434E-03    0.133E-02
RMM:  17    -0.186723152571E+03   -0.28974E-05   -0.33773E-06 10967   0.490E-03    0.743E-03
RMM:  18    -0.186723154600E+03   -0.20296E-05   -0.33979E-06 11125   0.495E-03    0.265E-03
RMM:  19    -0.186723155111E+03   -0.51081E-06   -0.54829E-07  9041   0.211E-03    0.149E-03
RMM:  20    -0.186723155144E+03   -0.32507E-07   -0.13633E-07  6745   0.109E-03
   8 F= -.18672316E+03 E0= -.18672137E+03  d E =-.146622E-01  mag=     1.1869
       N       E                     dE             d eps       ncg     rms          rms(c)
DAV:   1    -0.186950665220E+03   -0.22751E+00   -0.11494E+01 11008   0.116E+01    0.383E+00
RMM:   2    -0.186833246072E+03    0.11742E+00   -0.65409E-01 10880   0.253E+00    0.419E+00
RMM:   3    -0.186750123873E+03    0.83122E-01   -0.19429E-01 11046   0.122E+00    0.272E+00
RMM:   4    -0.186691610886E+03    0.58513E-01   -0.67576E-02 10961   0.720E-01    0.899E-01
RMM:   5    -0.186691386593E+03    0.22429E-03   -0.11801E-02 12217   0.272E-01    0.838E-01
RMM:   6    -0.186691281135E+03    0.10546E-03   -0.55919E-03 11666   0.190E-01    0.819E-01
RMM:   7    -0.186687736144E+03    0.35450E-02   -0.25951E-03 12122   0.137E-01    0.191E-01
RMM:   8    -0.186687651294E+03    0.84850E-04   -0.77089E-04 14456   0.624E-02    0.124E-01
RMM:   9    -0.186687751379E+03   -0.10008E-03   -0.27513E-04 13631   0.385E-02    0.140E-01
RMM:  10    -0.186687697044E+03    0.54335E-04   -0.14751E-04 13225   0.290E-02    0.748E-02
RMM:  11    -0.186687704837E+03   -0.77933E-05   -0.71199E-05 13132   0.206E-02    0.620E-02
RMM:  12    -0.186687691869E+03    0.12968E-04   -0.27135E-05 12948   0.129E-02    0.316E-02
RMM:  13    -0.186687702781E+03   -0.10912E-04   -0.11502E-05 13820   0.804E-03    0.246E-02
RMM:  14    -0.186687715475E+03   -0.12694E-04   -0.98678E-06 12735   0.804E-03    0.263E-02
RMM:  15    -0.186687718138E+03   -0.26636E-05   -0.44104E-06 12755   0.522E-03    0.166E-02
RMM:  16    -0.186687724623E+03   -0.64849E-05   -0.58804E-06 11388   0.623E-03    0.138E-02
RMM:  17    -0.186687727204E+03   -0.25811E-05   -0.38142E-06 11040   0.495E-03    0.109E-02
RMM:  18    -0.186687727831E+03   -0.62659E-06   -0.20792E-06 11030   0.364E-03    0.307E-03
RMM:  19    -0.186687728046E+03   -0.21534E-06   -0.48510E-07  9116   0.175E-03    0.174E-03
RMM:  20    -0.186687728061E+03   -0.15163E-07   -0.12330E-07  6571   0.102E-03
   9 F= -.18668773E+03 E0= -.18668685E+03  d E =0.354271E-01  mag=     1.3436
       N       E                     dE             d eps       ncg     rms          rms(c)
DAV:   1    -0.186868448798E+03   -0.18072E+00   -0.58978E+00 11024   0.834E+00    0.274E+00
RMM:   2    -0.186807672431E+03    0.60776E-01   -0.33722E-01 10880   0.182E+00    0.291E+00
RMM:   3    -0.186768221162E+03    0.39451E-01   -0.10040E-01 11004   0.879E-01    0.197E+00
RMM:   4    -0.186737037444E+03    0.31184E-01   -0.34592E-02 10959   0.518E-01    0.524E-01
RMM:   5    -0.186736286777E+03    0.75067E-03   -0.56548E-03 12435   0.182E-01    0.444E-01
RMM:   6    -0.186736471204E+03   -0.18443E-03   -0.20006E-03 11988   0.113E-01    0.478E-01
RMM:   7    -0.186735308617E+03    0.11626E-02   -0.98947E-04 12332   0.831E-02    0.127E-01
RMM:   8    -0.186735309122E+03   -0.50482E-06   -0.34990E-04 14725   0.397E-02    0.822E-02
RMM:   9    -0.186735372755E+03   -0.63633E-04   -0.12545E-04 14010   0.252E-02    0.103E-01
RMM:  10    -0.186735341855E+03    0.30899E-04   -0.60297E-05 13622   0.183E-02    0.406E-02
RMM:  11    -0.186735351333E+03   -0.94773E-05   -0.24366E-05 13584   0.120E-02    0.322E-02
RMM:  12    -0.186735349293E+03    0.20396E-05   -0.10555E-05 13308   0.768E-03    0.184E-02
RMM:  13    -0.186735353589E+03   -0.42957E-05   -0.38954E-06 14044   0.455E-03    0.128E-02
RMM:  14    -0.186735357234E+03   -0.36455E-05   -0.24962E-06 13148   0.384E-03    0.141E-02
RMM:  15    -0.186735358040E+03   -0.80569E-06   -0.11776E-06 11866   0.264E-03    0.855E-03
RMM:  16    -0.186735360111E+03   -0.20714E-05   -0.15559E-06 11231   0.325E-03    0.715E-03
RMM:  17    -0.186735360962E+03   -0.85058E-06   -0.10980E-06 10451   0.269E-03    0.657E-03
RMM:  18    -0.186735360925E+03    0.36875E-07   -0.98200E-07 10241   0.264E-03
  10 F= -.18673536E+03 E0= -.18673387E+03  d E =-.122058E-01  mag=     1.2378
       N       E                     dE             d eps       ncg     rms          rms(c)
DAV:   1    -0.186735482092E+03   -0.12113E-03   -0.41278E-03 11920   0.220E-01    0.729E-02
RMM:   2    -0.186735438229E+03    0.43863E-04   -0.23532E-04 10880   0.481E-02    0.776E-02
RMM:   3    -0.186735410814E+03    0.27415E-04   -0.70323E-05 11024   0.233E-02    0.525E-02
RMM:   4    -0.186735389273E+03    0.21541E-04   -0.24698E-05 10960   0.138E-02    0.157E-02
RMM:   5    -0.186735392105E+03   -0.28320E-05   -0.53001E-06 11794   0.587E-03    0.263E-02
RMM:   6    -0.186735389016E+03    0.30892E-05   -0.22213E-06 11158   0.396E-03    0.968E-03
RMM:   7    -0.186735388939E+03    0.76809E-07   -0.77956E-07  9878   0.242E-03
  11 F= -.18673539E+03 E0= -.18673388E+03  d E =-.122338E-01  mag=     1.2364
       N       E                     dE             d eps       ncg     rms          rms(c)
DAV:   1    -0.186739943898E+03   -0.45549E-02   -0.25625E+00 10880   0.489E+00    0.123E+00
RMM:   2    -0.186756892416E+03   -0.16949E-01   -0.10926E-01 10887   0.112E+00    0.177E+00
RMM:   3    -0.186734605864E+03    0.22287E-01   -0.20414E-02 11044   0.410E-01    0.788E-01
RMM:   4    -0.186731046301E+03    0.35596E-02   -0.50166E-03 11372   0.196E-01    0.337E-01
RMM:   5    -0.186731288998E+03   -0.24270E-03   -0.18749E-03 11263   0.112E-01    0.423E-01
RMM:   6    -0.186730441146E+03    0.84785E-03   -0.62156E-04 11875   0.642E-02    0.151E-01
RMM:   7    -0.186730311243E+03    0.12990E-03   -0.15262E-04 13091   0.324E-02    0.473E-02
RMM:   8    -0.186730307050E+03    0.41926E-05   -0.37699E-05 14517   0.147E-02    0.375E-02
RMM:   9    -0.186730302531E+03    0.45196E-05   -0.17150E-05 14158   0.969E-03    0.266E-02
RMM:  10    -0.186730301607E+03    0.92417E-06   -0.88862E-06 14593   0.705E-03    0.239E-02
RMM:  11    -0.186730298465E+03    0.31418E-05   -0.50232E-06 13562   0.547E-03    0.117E-02
RMM:  12    -0.186730297521E+03    0.94351E-06   -0.12035E-06 12357   0.244E-03    0.387E-03
RMM:  13    -0.186730297290E+03    0.23153E-06   -0.36324E-07  8852   0.135E-03    0.238E-03
RMM:  14    -0.186730297175E+03    0.11486E-06   -0.31608E-07  8575   0.136E-03    0.325E-03
RMM:  15    -0.186730297040E+03    0.13508E-06   -0.13955E-07  6937   0.116E-03    0.144E-03
RMM:  16    -0.186730297052E+03   -0.12429E-07   -0.80021E-08  6542   0.693E-04
  12 F= -.18673030E+03 E0= -.18672893E+03  d E =0.509189E-02  mag=     1.2501
       N       E                     dE             d eps       ncg     rms          rms(c)
DAV:   1    -0.186742890407E+03   -0.12593E-01   -0.98155E-01 10880   0.303E+00    0.768E-01
RMM:   2    -0.186749237762E+03   -0.63474E-02   -0.41664E-02 10888   0.689E-01    0.109E+00
RMM:   3    -0.186740897383E+03    0.83404E-02   -0.77032E-03 11044   0.252E-01    0.481E-01
RMM:   4    -0.186739524434E+03    0.13729E-02   -0.18767E-03 11384   0.120E-01    0.192E-01
RMM:   5    -0.186739690923E+03   -0.16649E-03   -0.69122E-04 11349   0.678E-02    0.271E-01
RMM:   6    -0.186739344340E+03    0.34658E-03   -0.24108E-04 11793   0.399E-02    0.912E-02
RMM:   7    -0.186739302111E+03    0.42228E-04   -0.53648E-05 13194   0.195E-02    0.289E-02
RMM:   8    -0.186739302054E+03    0.57835E-07   -0.12511E-05 15188   0.796E-03    0.158E-02
RMM:   9    -0.186739305097E+03   -0.30432E-05   -0.71364E-06 14032   0.627E-03    0.184E-02
RMM:  10    -0.186739304446E+03    0.65098E-06   -0.36018E-06 13535   0.469E-03    0.724E-03
RMM:  11    -0.186739304786E+03   -0.34035E-06   -0.10594E-06 12050   0.226E-03    0.833E-03
RMM:  12    -0.186739304477E+03    0.30897E-06   -0.43953E-07 10033   0.163E-03    0.236E-03
RMM:  13    -0.186739304644E+03   -0.16693E-06   -0.14989E-07  7056   0.971E-04    0.151E-03
RMM:  14    -0.186739304822E+03   -0.17822E-06   -0.90207E-08  6754   0.841E-04    0.124E-03
RMM:  15    -0.186739304841E+03   -0.18328E-07   -0.48828E-08  6295   0.745E-04
  13 F= -.18673930E+03 E0= -.18673785E+03  d E =-.391590E-02  mag=     1.2415
       N       E                     dE             d eps       ncg     rms          rms(c)
DAV:   1    -0.186739780238E+03   -0.47542E-03   -0.55081E-02 10960   0.717E-01    0.182E-01
RMM:   2    -0.186740135805E+03   -0.35557E-03   -0.23379E-03 10887   0.164E-01    0.259E-01
RMM:   3    -0.186739663394E+03    0.47241E-03   -0.43671E-04 11044   0.601E-02    0.116E-01
RMM:   4    -0.186739583963E+03    0.79431E-04   -0.10801E-04 11351   0.287E-02    0.476E-02
RMM:   5    -0.186739591350E+03   -0.73871E-05   -0.40474E-05 11240   0.165E-02    0.661E-02
RMM:   6    -0.186739570155E+03    0.21196E-04   -0.14012E-05 11723   0.965E-03    0.217E-02
RMM:   7    -0.186739566796E+03    0.33590E-05   -0.32011E-06 12802   0.473E-03    0.666E-03
RMM:   8    -0.186739566273E+03    0.52255E-06   -0.62682E-07 10157   0.189E-03    0.367E-03
RMM:   9    -0.186739566108E+03    0.16542E-06   -0.36873E-07  8656   0.162E-03    0.410E-03
RMM:  10    -0.186739565803E+03    0.30434E-06   -0.19574E-07  7139   0.148E-03    0.230E-03
RMM:  11    -0.186739565751E+03    0.52554E-07   -0.81923E-08  6409   0.935E-04
  14 F= -.18673957E+03 E0= -.18673813E+03  d E =-.417681E-02  mag=     1.2433
       N       E                     dE             d eps       ncg     rms          rms(c)
DAV:   1    -0.186739730475E+03   -0.16467E-03   -0.80686E-03 11088   0.274E-01    0.698E-02
RMM:   2    -0.186739783206E+03   -0.52731E-04   -0.34245E-04 10887   0.625E-02    0.991E-02
RMM:   3    -0.186739714456E+03    0.68750E-04   -0.63897E-05 11043   0.230E-02    0.443E-02
RMM:   4    -0.186739703574E+03    0.10882E-04   -0.15689E-05 11322   0.110E-02    0.180E-02
RMM:   5    -0.186739705625E+03   -0.20508E-05   -0.58516E-06 11218   0.627E-03    0.254E-02
RMM:   6    -0.186739702617E+03    0.30075E-05   -0.20140E-06 11154   0.366E-03    0.812E-03
RMM:   7    -0.186739702515E+03    0.10213E-06   -0.41218E-07  8527   0.183E-03    0.259E-03
RMM:   8    -0.186739702669E+03   -0.15433E-06   -0.93309E-08  6496   0.967E-04    0.162E-03
RMM:   9    -0.186739702730E+03   -0.60798E-07   -0.55015E-08  6343   0.829E-04
  15 F= -.18673970E+03 E0= -.18673826E+03  d E =-.431379E-02  mag=     1.2428
       N       E                     dE             d eps       ncg     rms          rms(c)
DAV:   1    -0.186743272868E+03   -0.35702E-02   -0.17345E-01 10912   0.133E+00    0.342E-01
RMM:   2    -0.186744469846E+03   -0.11970E-02   -0.75163E-03 10888   0.293E-01    0.501E-01
RMM:   3    -0.186742712917E+03    0.17569E-02   -0.13938E-03 11044   0.111E-01    0.220E-01
RMM:   4    -0.186742449906E+03    0.26301E-03   -0.36184E-04 11357   0.524E-02    0.920E-02
RMM:   5    -0.186742464334E+03   -0.14428E-04   -0.13353E-04 11212   0.305E-02    0.113E-01
RMM:   6    -0.186742403724E+03    0.60610E-04   -0.42435E-05 12109   0.170E-02    0.408E-02
RMM:   7    -0.186742393249E+03    0.10475E-04   -0.94257E-06 13206   0.809E-03    0.120E-02
RMM:   8    -0.186742392256E+03    0.99326E-06   -0.22978E-06 13889   0.332E-03    0.821E-03
RMM:   9    -0.186742392160E+03    0.95328E-07   -0.11145E-06 12092   0.250E-03    0.936E-03
RMM:  10    -0.186742391277E+03    0.88316E-06   -0.58653E-07 10595   0.204E-03    0.370E-03
RMM:  11    -0.186742391190E+03    0.87311E-07   -0.26759E-07  8015   0.148E-03
  16 F= -.18674239E+03 E0= -.18674099E+03  d E =-.268846E-02  mag=     1.2484
       N       E                     dE             d eps       ncg     rms          rms(c)
DAV:   1    -0.186742544076E+03   -0.15280E-03   -0.16728E-02 11120   0.413E-01    0.106E-01
RMM:   2    -0.186742659491E+03   -0.11541E-03   -0.72651E-04 10889   0.910E-02    0.156E-01
RMM:   3    -0.186742489332E+03    0.17016E-03   -0.13368E-04 11044   0.344E-02    0.674E-02
RMM:   4    -0.186742463480E+03    0.25852E-04   -0.34964E-05 11402   0.162E-02    0.283E-02
RMM:   5    -0.186742466083E+03   -0.26033E-05   -0.14011E-05 11249   0.985E-03    0.396E-02
RMM:   6    -0.186742458261E+03    0.78216E-05   -0.47879E-06 11868   0.569E-03    0.124E-02
RMM:   7    -0.186742456973E+03    0.12879E-05   -0.95896E-07 11328   0.264E-03    0.377E-03
RMM:   8    -0.186742456703E+03    0.27064E-06   -0.19416E-07  7267   0.115E-03    0.267E-03
RMM:   9    -0.186742456608E+03    0.94547E-07   -0.11785E-07  6666   0.110E-03
  17 F= -.18674246E+03 E0= -.18674107E+03  d E =-.275388E-02  mag=     1.2511
       N       E                     dE             d eps       ncg     rms          rms(c)
DAV:   1    -0.186744876394E+03   -0.24197E-02   -0.31732E-02 11048   0.414E-01    0.141E-01
RMM:   2    -0.186744857354E+03    0.19040E-04   -0.10596E-03 10880   0.973E-02    0.974E-02
RMM:   3    -0.186744916438E+03   -0.59084E-04   -0.25494E-04 11062   0.390E-02    0.127E-01
RMM:   4    -0.186744786023E+03    0.13041E-03   -0.11931E-04 10883   0.286E-02    0.308E-02
RMM:   5    -0.186744790441E+03   -0.44180E-05   -0.20147E-05 12033   0.109E-02    0.446E-02
RMM:   6    -0.186744780545E+03    0.98965E-05   -0.68553E-06 11276   0.677E-03    0.143E-02
RMM:   7    -0.186744780207E+03    0.33772E-06   -0.25756E-06 11959   0.413E-03    0.500E-03
RMM:   8    -0.186744780449E+03   -0.24157E-06   -0.36086E-07  8755   0.132E-03    0.345E-03
RMM:   9    -0.186744780731E+03   -0.28238E-06   -0.24413E-07  7655   0.130E-03    0.453E-03
RMM:  10    -0.186744780909E+03   -0.17789E-06   -0.15673E-07  6673   0.128E-03    0.180E-03
RMM:  11    -0.186744781028E+03   -0.11910E-06   -0.77135E-08  6328   0.937E-04    0.155E-03
RMM:  12    -0.186744781044E+03   -0.15752E-07   -0.34004E-08  6012   0.657E-04
  18 F= -.18674478E+03 E0= -.18674339E+03  d E =-.232444E-02  mag=     1.2512
       N       E                     dE             d eps       ncg     rms          rms(c)
DAV:   1    -0.186745340767E+03   -0.55974E-03   -0.19903E-02 11040   0.327E-01    0.113E-01
RMM:   2    -0.186745324489E+03    0.16278E-04   -0.65118E-04 10880   0.765E-02    0.771E-02
RMM:   3    -0.186745365371E+03   -0.40882E-04   -0.16311E-04 11055   0.313E-02    0.103E-01
RMM:   4    -0.186745280630E+03    0.84741E-04   -0.78670E-05 10885   0.231E-02    0.236E-02
RMM:   5    -0.186745282401E+03   -0.17717E-05   -0.11919E-05 12251   0.827E-03    0.321E-02
RMM:   6    -0.186745277664E+03    0.47370E-05   -0.40230E-06 11219   0.513E-03    0.126E-02
RMM:   7    -0.186745277437E+03    0.22763E-06   -0.16514E-06 11290   0.328E-03    0.405E-03
RMM:   8    -0.186745277636E+03   -0.19955E-06   -0.21013E-07  7526   0.111E-03    0.279E-03
RMM:   9    -0.186745277834E+03   -0.19751E-06   -0.15539E-07  7041   0.116E-03    0.363E-03
RMM:  10    -0.186745277984E+03   -0.14965E-06   -0.10928E-07  6380   0.110E-03    0.139E-03
RMM:  11    -0.186745278059E+03   -0.75072E-07   -0.54611E-08  6231   0.800E-04
  19 F= -.18674528E+03 E0= -.18674388E+03  d E =-.282145E-02  mag=     1.2505
       N       E                     dE             d eps       ncg     rms          rms(c)
DAV:   1    -0.186745319658E+03   -0.41674E-04   -0.88573E-04 11456   0.689E-02    0.240E-02
RMM:   2    -0.186745318675E+03    0.98252E-06   -0.28930E-05 10885   0.161E-02    0.160E-02
RMM:   3    -0.186745320576E+03   -0.19009E-05   -0.73071E-06 11048   0.667E-03    0.219E-02
RMM:   4    -0.186745316533E+03    0.40435E-05   -0.35202E-06 10843   0.490E-03    0.516E-03
RMM:   5    -0.186745316444E+03    0.89178E-07   -0.46746E-07  8326   0.176E-03
  20 F= -.18674532E+03 E0= -.18674392E+03  d E =-.285984E-02  mag=     1.2504
       N       E                     dE             d eps       ncg     rms          rms(c)
DAV:   1    -0.186745980945E+03   -0.66441E-03   -0.84922E-03 11840   0.320E-01    0.114E-01
RMM:   2    -0.186745795496E+03    0.18545E-03   -0.53579E-04 10882   0.693E-02    0.638E-02
RMM:   3    -0.186745797826E+03   -0.23293E-05   -0.14649E-04 10982   0.355E-02    0.628E-02
RMM:   4    -0.186745783019E+03    0.14806E-04   -0.43814E-05 10924   0.186E-02    0.418E-02
RMM:   5    -0.186745778698E+03    0.43210E-05   -0.11101E-05 11231   0.902E-03    0.342E-02
RMM:   6    -0.186745773653E+03    0.50456E-05   -0.45665E-06 11301   0.579E-03    0.150E-02
RMM:   7    -0.186745773351E+03    0.30213E-06   -0.16908E-06 12035   0.317E-03    0.627E-03
RMM:   8    -0.186745773820E+03   -0.46904E-06   -0.59371E-07  8793   0.172E-03    0.331E-03
RMM:   9    -0.186745774215E+03   -0.39512E-06   -0.25936E-07  7173   0.142E-03    0.479E-03
RMM:  10    -0.186745774372E+03   -0.15703E-06   -0.14340E-07  6465   0.134E-03    0.143E-03
RMM:  11    -0.186745774511E+03   -0.13951E-06   -0.65980E-08  6282   0.836E-04    0.106E-03
RMM:  12    -0.186745774536E+03   -0.24691E-07   -0.31074E-08  6149   0.655E-04
  21 F= -.18674577E+03 E0= -.18674438E+03  d E =-.458093E-03  mag=     1.2477
       N       E                     dE             d eps       ncg     rms          rms(c)
DAV:   1    -0.186745999589E+03   -0.22508E-03   -0.47340E-03 11616   0.239E-01    0.848E-02
RMM:   2    -0.186745896614E+03    0.10298E-03   -0.29665E-04 10880   0.516E-02    0.480E-02
RMM:   3    -0.186745900770E+03   -0.41560E-05   -0.82094E-05 10976   0.265E-02    0.518E-02
RMM:   4    -0.186745889830E+03    0.10940E-04   -0.24146E-05 10952   0.138E-02    0.329E-02
RMM:   5    -0.186745891244E+03   -0.14144E-05   -0.81708E-06 11236   0.747E-03    0.344E-02
RMM:   6    -0.186745884936E+03    0.63083E-05   -0.41900E-06 11133   0.560E-03    0.105E-02
RMM:   7    -0.186745884973E+03   -0.37422E-07   -0.10742E-06 11359   0.258E-03    0.494E-03
RMM:   8    -0.186745885357E+03   -0.38391E-06   -0.35820E-07  7393   0.139E-03    0.264E-03
RMM:   9    -0.186745885611E+03   -0.25382E-06   -0.16049E-07  6586   0.116E-03    0.356E-03
RMM:  10    -0.186745885775E+03   -0.16445E-06   -0.10120E-07  6343   0.116E-03    0.127E-03
RMM:  11    -0.186745885892E+03   -0.11651E-06   -0.52232E-08  6243   0.760E-04    0.103E-03
RMM:  12    -0.186745885912E+03   -0.19811E-07   -0.24042E-08  5948   0.552E-04
  22 F= -.18674589E+03 E0= -.18674448E+03  d E =-.569468E-03  mag=     1.2443
       N       E                     dE             d eps       ncg     rms          rms(c)
DAV:   1    -0.186746145768E+03   -0.25988E-03   -0.70729E-03 10976   0.226E-01    0.481E-02
RMM:   2    -0.186746150618E+03   -0.48507E-05   -0.20829E-04 10881   0.478E-02    0.313E-02
RMM:   3    -0.186746157202E+03   -0.65833E-05   -0.29628E-05 11125   0.153E-02    0.458E-02
RMM:   4    -0.186746144208E+03    0.12994E-04   -0.99656E-06 11417   0.790E-03    0.186E-02
RMM:   5    -0.186746145857E+03   -0.16489E-05   -0.55227E-06 11442   0.567E-03    0.239E-02
RMM:   6    -0.186746142440E+03    0.34173E-05   -0.22094E-06 11029   0.387E-03    0.486E-03
RMM:   7    -0.186746142333E+03    0.10695E-06   -0.31643E-07  8456   0.151E-03    0.208E-03
RMM:   8    -0.186746142390E+03   -0.57405E-07   -0.10047E-07  6472   0.997E-04
  23 F= -.18674614E+03 E0= -.18674474E+03  d E =-.256478E-03  mag=     1.2424
       N       E                     dE             d eps       ncg     rms          rms(c)
DAV:   1    -0.186746152941E+03   -0.10608E-04   -0.44956E-04 11280   0.571E-02    0.123E-02
RMM:   2    -0.186746153279E+03   -0.33788E-06   -0.13446E-05 10889   0.121E-02    0.855E-03
RMM:   3    -0.186746153769E+03   -0.48957E-06   -0.19052E-06 10956   0.384E-03    0.130E-02
RMM:   4    -0.186746152831E+03    0.93771E-06   -0.61028E-07  8878   0.199E-03    0.505E-03
RMM:   5    -0.186746152866E+03   -0.35017E-07   -0.38845E-07  7935   0.168E-03
  24 F= -.18674615E+03 E0= -.18674475E+03  d E =-.266954E-03  mag=     1.2411
       N       E                     dE             d eps       ncg     rms          rms(c)
DAV:   1    -0.186746526699E+03   -0.37387E-03   -0.63435E-03 10976   0.242E-01    0.651E-02
RMM:   2    -0.186746531070E+03   -0.43710E-05   -0.22344E-04 10901   0.447E-02    0.368E-02
RMM:   3    -0.186746544449E+03   -0.13380E-04   -0.32041E-05 11006   0.170E-02    0.510E-02
RMM:   4    -0.186746527625E+03    0.16825E-04   -0.11514E-05 11421   0.968E-03    0.161E-02
RMM:   5    -0.186746529613E+03   -0.19877E-05   -0.45741E-06 11479   0.534E-03    0.242E-02
RMM:   6    -0.186746525897E+03    0.37153E-05   -0.17774E-06 10937   0.366E-03    0.526E-03
RMM:   7    -0.186746525530E+03    0.36744E-06   -0.28522E-07  7882   0.160E-03    0.225E-03
RMM:   8    -0.186746525435E+03    0.94591E-07   -0.96244E-08  6562   0.989E-04
  25 F= -.18674653E+03 E0= -.18674514E+03  d E =-.372569E-03  mag=     1.2391
       N       E                     dE             d eps       ncg     rms          rms(c)
DAV:   1    -0.186747697211E+03   -0.11717E-02   -0.57052E-02 10880   0.728E-01    0.193E-01
RMM:   2    -0.186747736795E+03   -0.39584E-04   -0.20038E-03 10898   0.134E-01    0.109E-01
RMM:   3    -0.186747832707E+03   -0.95911E-04   -0.25136E-04 11039   0.494E-02    0.145E-01
RMM:   4    -0.186747716379E+03    0.11633E-03   -0.89730E-05 11544   0.271E-02    0.550E-02
RMM:   5    -0.186747729671E+03   -0.13292E-04   -0.39214E-05 11580   0.160E-02    0.652E-02
RMM:   6    -0.186747700665E+03    0.29006E-04   -0.17142E-05 11489   0.113E-02    0.169E-02
RMM:   7    -0.186747698580E+03    0.20847E-05   -0.30410E-06 13390   0.453E-03    0.632E-03
RMM:   8    -0.186747698280E+03    0.29931E-06   -0.70881E-07 10722   0.178E-03    0.531E-03
RMM:   9    -0.186747698127E+03    0.15340E-06   -0.30346E-07  8085   0.142E-03    0.327E-03
RMM:  10    -0.186747697976E+03    0.15077E-06   -0.17392E-07  7051   0.117E-03    0.231E-03
RMM:  11    -0.186747697917E+03    0.59717E-07   -0.10950E-07  6603   0.106E-03
  26 F= -.18674770E+03 E0= -.18674636E+03  d E =-.154505E-02  mag=     1.2344
       N       E                     dE             d eps       ncg     rms          rms(c)
DAV:   1    -0.186747542216E+03    0.15576E-03   -0.22773E-01 10880   0.145E+00    0.373E-01
RMM:   2    -0.186747705816E+03   -0.16360E-03   -0.79987E-03 10897   0.267E-01    0.211E-01
RMM:   3    -0.186748085729E+03   -0.37991E-03   -0.99073E-04 11052   0.980E-02    0.288E-01
RMM:   4    -0.186747625100E+03    0.46063E-03   -0.35044E-04 11571   0.537E-02    0.108E-01
RMM:   5    -0.186747683240E+03   -0.58140E-04   -0.15672E-04 11599   0.319E-02    0.131E-01
RMM:   6    -0.186747568119E+03    0.11512E-03   -0.68608E-05 11621   0.226E-02    0.343E-02
RMM:   7    -0.186747560954E+03    0.71649E-05   -0.12048E-05 13949   0.911E-03    0.129E-02
RMM:   8    -0.186747560322E+03    0.63169E-06   -0.31560E-06 14598   0.366E-03    0.113E-02
RMM:   9    -0.186747559775E+03    0.54693E-06   -0.12879E-06 12409   0.237E-03    0.616E-03
RMM:  10    -0.186747559595E+03    0.18033E-06   -0.74691E-07 11336   0.196E-03    0.541E-03
RMM:  11    -0.186747559372E+03    0.22305E-06   -0.39408E-07  8922   0.169E-03    0.307E-03
RMM:  12    -0.186747559285E+03    0.87546E-07   -0.15671E-07  7191   0.120E-03
  27 F= -.18674756E+03 E0= -.18674632E+03  d E =-.140642E-02  mag=     1.2246
       N       E                     dE             d eps       ncg     rms          rms(c)
DAV:   1    -0.186747802766E+03   -0.24339E-03   -0.40270E-02 10880   0.612E-01    0.155E-01
RMM:   2    -0.186747832451E+03   -0.29685E-04   -0.14206E-03 10896   0.113E-01    0.878E-02
RMM:   3    -0.186747899225E+03   -0.66774E-04   -0.17032E-04 11047   0.409E-02    0.120E-01
RMM:   4    -0.186747821502E+03    0.77723E-04   -0.59926E-05 11475   0.223E-02    0.463E-02
RMM:   5    -0.186747832385E+03   -0.10882E-04   -0.27501E-05 11547   0.135E-02    0.544E-02
RMM:   6    -0.186747812849E+03    0.19535E-04   -0.12237E-05 11504   0.957E-03    0.145E-02
RMM:   7    -0.186747812377E+03    0.47173E-06   -0.20902E-06 12734   0.376E-03    0.505E-03
RMM:   8    -0.186747812516E+03   -0.13880E-06   -0.43732E-07  8848   0.143E-03    0.308E-03
RMM:   9    -0.186747812603E+03   -0.86697E-07   -0.19853E-07  7180   0.120E-03
  28 F= -.18674781E+03 E0= -.18674650E+03  d E =-.165974E-02  mag=     1.2226
       N       E                     dE             d eps       ncg     rms          rms(c)
DAV:   1    -0.186747847419E+03   -0.34903E-04   -0.24536E-02 10880   0.478E-01    0.124E-01
RMM:   2    -0.186747865992E+03   -0.18573E-04   -0.86537E-04 10898   0.877E-02    0.695E-02
RMM:   3    -0.186747909446E+03   -0.43454E-04   -0.10546E-04 11077   0.321E-02    0.962E-02
RMM:   4    -0.186747860100E+03    0.49346E-04   -0.36946E-05 11486   0.174E-02    0.363E-02
RMM:   5    -0.186747866464E+03   -0.63642E-05   -0.17015E-05 11568   0.106E-02    0.414E-02
RMM:   6    -0.186747854995E+03    0.11470E-04   -0.75325E-06 11449   0.746E-03    0.113E-02
RMM:   7    -0.186747854846E+03    0.14904E-06   -0.13054E-06 11970   0.294E-03    0.398E-03
RMM:   8    -0.186747854999E+03   -0.15317E-06   -0.29747E-07  8030   0.127E-03    0.296E-03
RMM:   9    -0.186747855045E+03   -0.45551E-07   -0.14338E-07  6990   0.108E-03
  29 F= -.18674786E+03 E0= -.18674651E+03  d E =-.170218E-02  mag=     1.2246
       N       E                     dE             d eps       ncg     rms          rms(c)
DAV:   1    -0.186748054883E+03   -0.19988E-03   -0.41860E-03 10960   0.187E-01    0.309E-02
RMM:   2    -0.186748064386E+03   -0.95036E-05   -0.13028E-04 10953   0.334E-02    0.172E-02
RMM:   3    -0.186748065152E+03   -0.76568E-06   -0.67999E-06 11615   0.916E-03    0.164E-02
RMM:   4    -0.186748064560E+03    0.59171E-06   -0.27343E-06 11395   0.429E-03    0.148E-02
RMM:   5    -0.186748064467E+03    0.93458E-07   -0.13278E-06 10905   0.280E-03    0.115E-02
RMM:   6    -0.186748063488E+03    0.97841E-06   -0.58963E-07  8977   0.204E-03    0.152E-03
RMM:   7    -0.186748063465E+03    0.23820E-07   -0.90818E-08  6769   0.853E-04
  30 F= -.18674806E+03 E0= -.18674674E+03  d E =-.208420E-03  mag=     1.2266
       N       E                     dE             d eps       ncg     rms          rms(c)
DAV:   1    -0.186748500437E+03   -0.43695E-03   -0.37567E-02 10912   0.560E-01    0.880E-02
RMM:   2    -0.186748587975E+03   -0.87538E-04   -0.11847E-03 10977   0.100E-01    0.511E-02
RMM:   3    -0.186748601105E+03   -0.13130E-04   -0.67252E-05 11672   0.284E-02    0.591E-02
RMM:   4    -0.186748587748E+03    0.13356E-04   -0.25768E-05 11975   0.132E-02    0.423E-02
RMM:   5    -0.186748591011E+03   -0.32627E-05   -0.15539E-05 11985   0.959E-03    0.397E-02
RMM:   6    -0.186748579793E+03    0.11218E-04   -0.66536E-06 11473   0.660E-03    0.490E-03
RMM:   7    -0.186748579444E+03    0.34816E-06   -0.12788E-06 11163   0.241E-03    0.243E-03
RMM:   8    -0.186748579487E+03   -0.42442E-07   -0.32368E-07  7611   0.118E-03
  31 F= -.18674858E+03 E0= -.18674729E+03  d E =-.724442E-03  mag=     1.2281
       N       E                     dE             d eps       ncg     rms          rms(c)
DAV:   1    -0.186748430225E+03    0.14922E-03   -0.14970E-01 10912   0.112E+00    0.165E-01
RMM:   2    -0.186748781099E+03   -0.35087E-03   -0.47413E-03 10978   0.200E-01    0.978E-02
RMM:   3    -0.186748819819E+03   -0.38719E-04   -0.25490E-04 11773   0.558E-02    0.108E-01
RMM:   4    -0.186748779585E+03    0.40233E-04   -0.91758E-05 12129   0.247E-02    0.820E-02
RMM:   5    -0.186748792484E+03   -0.12899E-04   -0.58208E-05 12087   0.184E-02    0.771E-02
RMM:   6    -0.186748750276E+03    0.42209E-04   -0.25897E-05 11754   0.129E-02    0.940E-03
RMM:   7    -0.186748748973E+03    0.13021E-05   -0.51963E-06 13543   0.473E-03    0.453E-03
RMM:   8    -0.186748749153E+03   -0.17954E-06   -0.13685E-06 11511   0.199E-03    0.594E-03
RMM:   9    -0.186748749047E+03    0.10609E-06   -0.58537E-07  8996   0.154E-03    0.277E-03
RMM:  10    -0.186748749071E+03   -0.23801E-07   -0.27921E-07  7303   0.115E-03
  32 F= -.18674875E+03 E0= -.18674753E+03  d E =-.894026E-03  mag=     1.2300
       N       E                     dE             d eps       ncg     rms          rms(c)
DAV:   1    -0.186748897848E+03   -0.14880E-03   -0.27963E-03 11232   0.152E-01    0.229E-02
RMM:   2    -0.186748904701E+03   -0.68535E-05   -0.92864E-05 11118   0.270E-02    0.146E-02
RMM:   3    -0.186748906328E+03   -0.16268E-05   -0.63984E-06 11438   0.840E-03    0.191E-02
RMM:   4    -0.186748904207E+03    0.21211E-05   -0.22856E-06 11202   0.392E-03    0.101E-02
RMM:   5    -0.186748904734E+03   -0.52659E-06   -0.13231E-06 10602   0.275E-03    0.122E-02
RMM:   6    -0.186748903813E+03    0.92131E-06   -0.56810E-07  8998   0.204E-03    0.157E-03
RMM:   7    -0.186748903803E+03    0.10006E-07   -0.95890E-08  6857   0.905E-04
  33 F= -.18674890E+03 E0= -.18674769E+03  d E =-.154732E-03  mag=     1.2303
       N       E                     dE             d eps       ncg     rms          rms(c)
DAV:   1    -0.186749322531E+03   -0.41872E-03   -0.25207E-02 10912   0.455E-01    0.687E-02
RMM:   2    -0.186749382994E+03   -0.60463E-04   -0.82639E-04 11018   0.809E-02    0.436E-02
RMM:   3    -0.186749398314E+03   -0.15320E-04   -0.56271E-05 11278   0.252E-02    0.578E-02
RMM:   4    -0.186749379157E+03    0.19157E-04   -0.20055E-05 11743   0.118E-02    0.314E-02
RMM:   5    -0.186749383715E+03   -0.45576E-05   -0.11686E-05 11855   0.821E-03    0.371E-02
RMM:   6    -0.186749375310E+03    0.84046E-05   -0.49997E-06 11515   0.585E-03    0.586E-03
RMM:   7    -0.186749374987E+03    0.32304E-06   -0.98823E-07 10082   0.231E-03    0.217E-03
RMM:   8    -0.186749375039E+03   -0.52041E-07   -0.23162E-07  7141   0.108E-03
  34 F= -.18674938E+03 E0= -.18674819E+03  d E =-.625968E-03  mag=     1.2316
       N       E                     dE             d eps       ncg     rms          rms(c)
DAV:   1    -0.186749907578E+03   -0.53259E-03   -0.10074E-01 10912   0.911E-01    0.134E-01
RMM:   2    -0.186750148805E+03   -0.24123E-03   -0.33031E-03 11015   0.162E-01    0.857E-02
RMM:   3    -0.186750204597E+03   -0.55792E-04   -0.21756E-04 11305   0.498E-02    0.112E-01
RMM:   4    -0.186750133246E+03    0.71350E-04   -0.74688E-05 11800   0.227E-02    0.614E-02
RMM:   5    -0.186750151048E+03   -0.17802E-04   -0.45075E-05 11926   0.161E-02    0.726E-02
RMM:   6    -0.186750118409E+03    0.32639E-04   -0.19665E-05 11567   0.116E-02    0.111E-02
RMM:   7    -0.186750117117E+03    0.12922E-05   -0.41391E-06 12734   0.455E-03    0.454E-03
RMM:   8    -0.186750117341E+03   -0.22461E-06   -0.10645E-06 10509   0.186E-03    0.596E-03
RMM:   9    -0.186750117259E+03    0.82127E-07   -0.44882E-07  8044   0.146E-03
  35 F= -.18675012E+03 E0= -.18674898E+03  d E =-.136819E-02  mag=     1.2347
       N       E                     dE             d eps       ncg     rms          rms(c)
DAV:   1    -0.186750132860E+03   -0.15519E-04   -0.21321E-03 11360   0.133E-01    0.190E-02
RMM:   2    -0.186750138312E+03   -0.54522E-05   -0.71696E-05 11161   0.236E-02    0.131E-02
RMM:   3    -0.186750139756E+03   -0.14437E-05   -0.48466E-06 11585   0.729E-03    0.195E-02
RMM:   4    -0.186750137822E+03    0.19340E-05   -0.14957E-06 11144   0.318E-03    0.800E-03
RMM:   5    -0.186750138212E+03   -0.39033E-06   -0.11117E-06 10087   0.263E-03    0.987E-03
RMM:   6    -0.186750137563E+03    0.64954E-06   -0.47533E-07  8630   0.191E-03    0.117E-03
RMM:   7    -0.186750137568E+03   -0.49677E-08   -0.80555E-08  6757   0.823E-04
  36 F= -.18675014E+03 E0= -.18674902E+03  d E =-.138850E-02  mag=     1.2359
       N       E                     dE             d eps       ncg     rms          rms(c)
DAV:   1    -0.186750354235E+03   -0.21667E-03   -0.12333E-03 11376   0.917E-02    0.196E-02
RMM:   2    -0.186750355135E+03   -0.89994E-06   -0.28466E-05 10880   0.191E-02    0.127E-02
RMM:   3    -0.186750356894E+03   -0.17595E-05   -0.45333E-06 10838   0.603E-03    0.219E-02
RMM:   4    -0.186750354351E+03    0.25430E-05   -0.12762E-06  9807   0.291E-03    0.702E-03
RMM:   5    -0.186750354838E+03   -0.48615E-06   -0.10989E-06  9503   0.260E-03    0.105E-02
RMM:   6    -0.186750354161E+03    0.67633E-06   -0.38342E-07  7886   0.177E-03    0.172E-03
RMM:   7    -0.186750354137E+03    0.24023E-07   -0.44901E-08  6299   0.836E-04
  37 F= -.18675035E+03 E0= -.18674923E+03  d E =-.216570E-03  mag=     1.2369
       N       E                     dE             d eps       ncg     rms          rms(c)
DAV:   1    -0.186750589060E+03   -0.23490E-03   -0.77736E-03 10928   0.230E-01    0.500E-02
RMM:   2    -0.186750594433E+03   -0.53729E-05   -0.18102E-04 10880   0.481E-02    0.339E-02
RMM:   3    -0.186750606510E+03   -0.12077E-04   -0.28708E-05 11117   0.151E-02    0.593E-02
RMM:   4    -0.186750588604E+03    0.17906E-04   -0.94569E-06 11192   0.779E-03    0.192E-02
RMM:   5    -0.186750590708E+03   -0.21040E-05   -0.74456E-06 10845   0.680E-03    0.241E-02
RMM:   6    -0.186750586769E+03    0.39393E-05   -0.26258E-06 10613   0.430E-03    0.443E-03
RMM:   7    -0.186750586599E+03    0.16957E-06   -0.26375E-07  8094   0.132E-03    0.211E-03
RMM:   8    -0.186750586618E+03   -0.18241E-07   -0.87637E-08  6505   0.887E-04
  38 F= -.18675059E+03 E0= -.18674946E+03  d E =-.449050E-03  mag=     1.2393
       N       E                     dE             d eps       ncg     rms          rms(c)
DAV:   1    -0.186750704044E+03   -0.11744E-03   -0.96356E-04 11168   0.948E-02    0.264E-02
RMM:   2    -0.186750705071E+03   -0.10269E-05   -0.29431E-05 10894   0.189E-02    0.191E-02
RMM:   3    -0.186750708507E+03   -0.34365E-05   -0.63567E-06 10948   0.735E-03    0.319E-02
RMM:   4    -0.186750703925E+03    0.45821E-05   -0.18691E-06 10848   0.396E-03    0.113E-02
RMM:   5    -0.186750703634E+03    0.29077E-06   -0.13254E-06  9545   0.310E-03    0.839E-03
RMM:   6    -0.186750703226E+03    0.40777E-06   -0.26401E-07  7517   0.165E-03    0.194E-03
RMM:   7    -0.186750703235E+03   -0.82819E-08   -0.39823E-08  6336   0.806E-04
  39 F= -.18675070E+03 E0= -.18674957E+03  d E =-.116617E-03  mag=     1.2420
       N       E                     dE             d eps       ncg     rms          rms(c)
DAV:   1    -0.186750952626E+03   -0.24940E-03   -0.86604E-03 10896   0.284E-01    0.782E-02
RMM:   2    -0.186750957522E+03   -0.48954E-05   -0.26157E-04 10895   0.562E-02    0.532E-02
RMM:   3    -0.186750993121E+03   -0.35600E-04   -0.58302E-05 10984   0.221E-02    0.962E-02
RMM:   4    -0.186750947631E+03    0.45490E-04   -0.17227E-05 10917   0.121E-02    0.309E-02
RMM:   5    -0.186750947054E+03    0.57741E-06   -0.12333E-05 10961   0.934E-03    0.281E-02
RMM:   6    -0.186750941904E+03    0.51497E-05   -0.28658E-06 10980   0.500E-03    0.570E-03
RMM:   7    -0.186750941794E+03    0.11009E-06   -0.26048E-07  7679   0.148E-03    0.373E-03
RMM:   8    -0.186750941856E+03   -0.61973E-07   -0.90801E-08  6457   0.105E-03
  40 F= -.18675094E+03 E0= -.18674980E+03  d E =-.355238E-03  mag=     1.2474
       N       E                     dE             d eps       ncg     rms          rms(c)
DAV:   1    -0.186750988488E+03   -0.46694E-04   -0.34644E-02 10912   0.569E-01    0.157E-01
RMM:   2    -0.186751005958E+03   -0.17471E-04   -0.10476E-03 10895   0.113E-01    0.106E-01
RMM:   3    -0.186751145878E+03   -0.13992E-03   -0.23321E-04 10980   0.443E-02    0.191E-01
RMM:   4    -0.186750965054E+03    0.18082E-03   -0.67902E-05 10911   0.239E-02    0.620E-02
RMM:   5    -0.186750961395E+03    0.36595E-05   -0.48892E-05 10976   0.186E-02    0.554E-02
RMM:   6    -0.186750941076E+03    0.20319E-04   -0.11006E-05 11060   0.982E-03    0.111E-02
RMM:   7    -0.186750940686E+03    0.38951E-06   -0.13117E-06 11171   0.298E-03    0.826E-03
RMM:   8    -0.186750940740E+03   -0.53566E-07   -0.33858E-07  8111   0.161E-03
  41 F= -.18675094E+03 E0= -.18674978E+03  d E =-.354122E-03  mag=     1.2579
       N       E                     dE             d eps       ncg     rms          rms(c)
DAV:   1    -0.186751023559E+03   -0.82872E-04   -0.76971E-03 10928   0.268E-01    0.733E-02
RMM:   2    -0.186751023566E+03   -0.71868E-08   -0.22854E-04 10892   0.527E-02    0.455E-02
RMM:   3    -0.186751054770E+03   -0.31205E-04   -0.50295E-05 10952   0.206E-02    0.850E-02
RMM:   4    -0.186751015035E+03    0.39735E-04   -0.14953E-05 10891   0.113E-02    0.250E-02
RMM:   5    -0.186751017624E+03   -0.25894E-05   -0.10985E-05 10942   0.857E-03    0.312E-02
RMM:   6    -0.186751011094E+03    0.65306E-05   -0.30742E-06 10743   0.510E-03    0.558E-03
RMM:   7    -0.186751010817E+03    0.27716E-06   -0.20676E-07  7243   0.147E-03    0.279E-03
RMM:   8    -0.186751010812E+03    0.50077E-08   -0.59706E-08  6395   0.867E-04
  42 F= -.18675101E+03 E0= -.18674992E+03  d E =-.424194E-03  mag=     1.2629
       N       E                     dE             d eps       ncg     rms          rms(c)
DAV:   1    -0.186751131261E+03   -0.12044E-03   -0.32905E-03 11008   0.171E-01    0.319E-02
RMM:   2    -0.186751135163E+03   -0.39012E-05   -0.91369E-05 10881   0.332E-02    0.213E-02
RMM:   3    -0.186751138046E+03   -0.28836E-05   -0.78310E-06 11188   0.887E-03    0.312E-02
RMM:   4    -0.186751133832E+03    0.42143E-05   -0.27220E-06 10919   0.437E-03    0.129E-02
RMM:   5    -0.186751134528E+03   -0.69609E-06   -0.23457E-06 10916   0.393E-03    0.127E-02
RMM:   6    -0.186751133296E+03    0.12321E-05   -0.10368E-06  9463   0.262E-03    0.384E-03
RMM:   7    -0.186751133171E+03    0.12513E-06   -0.64004E-08  6440   0.875E-04    0.145E-03
RMM:   8    -0.186751133173E+03   -0.17044E-08   -0.30268E-08  6215   0.559E-04
  43 F= -.18675113E+03 E0= -.18675003E+03  d E =-.122361E-03  mag=     1.2650
       N       E                     dE             d eps       ncg     rms          rms(c)
DAV:   1    -0.186751182974E+03   -0.49803E-04   -0.26571E-03 10976   0.153E-01    0.294E-02
RMM:   2    -0.186751186541E+03   -0.35677E-05   -0.74561E-05 10881   0.300E-02    0.209E-02
RMM:   3    -0.186751190559E+03   -0.40171E-05   -0.80755E-06 11124   0.876E-03    0.346E-02
RMM:   4    -0.186751184999E+03    0.55599E-05   -0.26092E-06 10915   0.437E-03    0.112E-02
RMM:   5    -0.186751186535E+03   -0.15359E-05   -0.29628E-06 10661   0.438E-03    0.155E-02
RMM:   6    -0.186751184611E+03    0.19234E-05   -0.11934E-06  9565   0.294E-03    0.288E-03
RMM:   7    -0.186751184528E+03    0.83000E-07   -0.77641E-08  6518   0.863E-04
  44 F= -.18675118E+03 E0= -.18675008E+03  d E =-.173717E-03  mag=     1.2675
       N       E                     dE             d eps       ncg     rms          rms(c)
DAV:   1    -0.186751189759E+03   -0.51478E-05   -0.58904E-04 11440   0.721E-02    0.140E-02
RMM:   2    -0.186751190868E+03   -0.11089E-05   -0.16807E-05 10881   0.142E-02    0.119E-02
RMM:   3    -0.186751191463E+03   -0.59477E-06   -0.18280E-06 10972   0.421E-03    0.161E-02
RMM:   4    -0.186751190313E+03    0.11501E-05   -0.52944E-07  8611   0.202E-03    0.510E-03
RMM:   5    -0.186751190705E+03   -0.39255E-06   -0.67738E-07  9092   0.219E-03    0.721E-03
RMM:   6    -0.186751190262E+03    0.44354E-06   -0.29320E-07  7785   0.162E-03    0.175E-03
RMM:   7    -0.186751190239E+03    0.22728E-07   -0.28548E-08  6188   0.647E-04
  45 F= -.18675119E+03 E0= -.18675010E+03  d E =-.179427E-03  mag=     1.2698
       N       E                     dE             d eps       ncg     rms          rms(c)
DAV:   1    -0.186751251775E+03   -0.61513E-04   -0.12175E-03 10944   0.106E-01    0.135E-02
RMM:   2    -0.186751254597E+03   -0.28223E-05   -0.33990E-05 10887   0.188E-02    0.147E-02
RMM:   3    -0.186751254225E+03    0.37235E-06   -0.18018E-06 11314   0.499E-03    0.969E-03
RMM:   4    -0.186751254396E+03   -0.17076E-06   -0.71317E-07  9658   0.225E-03    0.118E-02
RMM:   5    -0.186751254808E+03   -0.41201E-06   -0.65223E-07  9334   0.217E-03    0.122E-02
RMM:   6    -0.186751253817E+03    0.99062E-06   -0.54556E-07  8975   0.211E-03    0.230E-03
RMM:   7    -0.186751253776E+03    0.41078E-07   -0.50208E-08  6292   0.772E-04
  46 F= -.18675125E+03 E0= -.18675017E+03  d E =-.635372E-04  mag=     1.2715
       N       E                     dE             d eps       ncg     rms          rms(c)
DAV:   1    -0.186751336896E+03   -0.83079E-04   -0.10958E-02 10896   0.319E-01    0.400E-02
RMM:   2    -0.186751362234E+03   -0.25338E-04   -0.30485E-04 10890   0.562E-02    0.420E-02
RMM:   3    -0.186751359840E+03    0.23939E-05   -0.16156E-05 11383   0.149E-02    0.278E-02
RMM:   4    -0.186751361743E+03   -0.19031E-05   -0.75794E-06 11630   0.727E-03    0.364E-02
RMM:   5    -0.186751364245E+03   -0.25016E-05   -0.53359E-06 11375   0.603E-03    0.343E-02
RMM:   6    -0.186751356935E+03    0.73098E-05   -0.40102E-06 11129   0.531E-03    0.892E-03
RMM:   7    -0.186751356414E+03    0.52116E-06   -0.61840E-07  9391   0.211E-03    0.280E-03
RMM:   8    -0.186751356384E+03    0.29962E-07   -0.81698E-08  6536   0.852E-04
  47 F= -.18675136E+03 E0= -.18675027E+03  d E =-.166145E-03  mag=     1.2728
       N       E                     dE             d eps       ncg     rms          rms(c)
DAV:   1    -0.186751359017E+03   -0.26030E-05   -0.78434E-04 11216   0.853E-02    0.105E-02
RMM:   2    -0.186751360849E+03   -0.18320E-05   -0.22170E-05 10923   0.151E-02    0.114E-02
RMM:   3    -0.186751360681E+03    0.16816E-06   -0.12121E-06 11234   0.401E-03    0.895E-03
RMM:   4    -0.186751360517E+03    0.16323E-06   -0.23421E-07  7122   0.139E-03    0.704E-03
RMM:   5    -0.186751360977E+03   -0.45944E-06   -0.68982E-07  9069   0.234E-03    0.973E-03
RMM:   6    -0.186751360274E+03    0.70307E-06   -0.36143E-07  8015   0.184E-03    0.125E-03
RMM:   7    -0.186751360254E+03    0.19583E-07   -0.40208E-08  6227   0.707E-04
  48 F= -.18675136E+03 E0= -.18675028E+03  d E =-.170015E-03  mag=     1.2731
       N       E                     dE             d eps       ncg     rms          rms(c)
DAV:   1    -0.186751409153E+03   -0.48879E-04   -0.17668E-03 10928   0.126E-01    0.194E-02
RMM:   2    -0.186751411010E+03   -0.18564E-05   -0.48715E-05 10885   0.233E-02    0.170E-02
RMM:   3    -0.186751411377E+03   -0.36769E-06   -0.46731E-06 11232   0.704E-03    0.174E-02
RMM:   4    -0.186751409813E+03    0.15647E-05   -0.15356E-06 10954   0.335E-03    0.105E-02
RMM:   5    -0.186751410054E+03   -0.24139E-06   -0.13373E-06  9785   0.302E-03    0.112E-02
RMM:   6    -0.186751409188E+03    0.86631E-06   -0.52782E-07  8439   0.209E-03    0.153E-03
RMM:   7    -0.186751409167E+03    0.20535E-07   -0.58473E-08  6412   0.855E-04
  49 F= -.18675141E+03 E0= -.18675033E+03  d E =-.489129E-04  mag=     1.2730
       N       E                     dE             d eps       ncg     rms          rms(c)
DAV:   1    -0.186751422345E+03   -0.13158E-04   -0.12811E-03 10912   0.107E-01    0.166E-02
RMM:   2    -0.186751424035E+03   -0.16897E-05   -0.35669E-05 10884   0.199E-02    0.163E-02
RMM:   3    -0.186751424041E+03   -0.65484E-08   -0.35385E-06 11268   0.606E-03    0.156E-02
RMM:   4    -0.186751422857E+03    0.11844E-05   -0.10967E-06 10807   0.282E-03    0.837E-03
RMM:   5    -0.186751423076E+03   -0.21860E-06   -0.10723E-06  9521   0.273E-03    0.969E-03
RMM:   6    -0.186751422430E+03    0.64618E-06   -0.40148E-07  8025   0.187E-03    0.128E-03
RMM:   7    -0.186751422419E+03    0.10996E-07   -0.46471E-08  6352   0.802E-04
  50 F= -.18675142E+03 E0= -.18675034E+03  d E =-.621643E-04  mag=     1.2723
       N       E                     dE             d eps       ncg     rms          rms(c)
DAV:   1    -0.186751459978E+03   -0.37549E-04   -0.18509E-03 10896   0.129E-01    0.191E-02
RMM:   2    -0.186751462579E+03   -0.26006E-05   -0.48582E-05 10880   0.234E-02    0.149E-02
RMM:   3    -0.186751463790E+03   -0.12112E-05   -0.45189E-06 11351   0.692E-03    0.211E-02
RMM:   4    -0.186751461465E+03    0.23245E-05   -0.13058E-06 10868   0.310E-03    0.765E-03
RMM:   5    -0.186751461820E+03   -0.35432E-06   -0.11733E-06  9590   0.282E-03    0.979E-03
RMM:   6    -0.186751461091E+03    0.72852E-06   -0.52235E-07  8387   0.207E-03    0.140E-03
RMM:   7    -0.186751461064E+03    0.27301E-07   -0.50437E-08  6409   0.828E-04
  51 F= -.18675146E+03 E0= -.18675038E+03  d E =-.386453E-04  mag=     1.2716
       N       E                     dE             d eps       ncg     rms          rms(c)
DAV:   1    -0.186751467947E+03   -0.68554E-05   -0.82631E-04 10992   0.864E-02    0.128E-02
RMM:   2    -0.186751469171E+03   -0.12241E-05   -0.21869E-05 10880   0.157E-02    0.103E-02
RMM:   3    -0.186751469688E+03   -0.51733E-06   -0.20690E-06 11221   0.466E-03    0.142E-02
RMM:   4    -0.186751468625E+03    0.10625E-05   -0.55434E-07  8661   0.207E-03    0.482E-03
RMM:   5    -0.186751468808E+03   -0.18246E-06   -0.53658E-07  8459   0.205E-03    0.654E-03
RMM:   6    -0.186751468460E+03    0.34784E-06   -0.26094E-07  7541   0.168E-03    0.120E-03
RMM:   7    -0.186751468442E+03    0.17562E-07   -0.31609E-08  6274   0.704E-04
  52 F= -.18675147E+03 E0= -.18675039E+03  d E =-.460240E-04  mag=     1.2709
       N       E                     dE             d eps       ncg     rms          rms(c)
DAV:   1    -0.186751490787E+03   -0.22327E-04   -0.16450E-03 10896   0.120E-01    0.126E-02
RMM:   2    -0.186751494132E+03   -0.33451E-05   -0.41776E-05 10881   0.208E-02    0.869E-03
RMM:   3    -0.186751494104E+03    0.28673E-07   -0.22693E-06 11953   0.529E-03    0.803E-03
RMM:   4    -0.186751494109E+03   -0.49840E-08   -0.58207E-07  9044   0.201E-03
  53 F= -.18675149E+03 E0= -.18675041E+03  d E =-.256662E-04  mag=     1.2708
       N       E                     dE             d eps       ncg     rms          rms(c)
DAV:   1    -0.186751498052E+03   -0.39482E-05   -0.97019E-04 10976   0.918E-02    0.118E-02
RMM:   2    -0.186751501863E+03   -0.38115E-05   -0.25437E-05 10910   0.162E-02    0.192E-02
RMM:   3    -0.186751499918E+03    0.19450E-05   -0.24030E-06 11124   0.500E-03    0.998E-03
RMM:   4    -0.186751499658E+03    0.26005E-06   -0.49489E-07  8775   0.182E-03    0.693E-03
RMM:   5    -0.186751499534E+03    0.12391E-06   -0.30040E-07  7696   0.165E-03    0.474E-03
RMM:   6    -0.186751499383E+03    0.15142E-06   -0.26775E-07  7238   0.157E-03    0.140E-03
RMM:   7    -0.186751499362E+03    0.20624E-07   -0.53243E-08  6239   0.929E-04
  54 F= -.18675150E+03 E0= -.18675042E+03  d E =-.309199E-04  mag=     1.2711
       N       E                     dE             d eps       ncg     rms          rms(c)
DAV:   1    -0.186751517981E+03   -0.18598E-04   -0.14611E-03 10912   0.112E-01    0.109E-02
RMM:   2    -0.186751521199E+03   -0.32174E-05   -0.35673E-05 10880   0.188E-02    0.994E-03
RMM:   3    -0.186751521183E+03    0.15991E-07   -0.19830E-06 11355   0.509E-03    0.802E-03
RMM:   4    -0.186751521052E+03    0.13074E-06   -0.53259E-07  8933   0.193E-03    0.745E-03
RMM:   5    -0.186751521275E+03   -0.22324E-06   -0.42111E-07  8504   0.172E-03    0.834E-03
RMM:   6    -0.186751520842E+03    0.43359E-06   -0.35183E-07  8018   0.175E-03    0.138E-03
RMM:   7    -0.186751520820E+03    0.21791E-07   -0.41523E-08  6192   0.782E-04
  55 F= -.18675152E+03 E0= -.18675044E+03  d E =-.214576E-04  mag=     1.2720
       N       E                     dE             d eps       ncg     rms          rms(c)
DAV:   1    -0.186751526621E+03   -0.57788E-05   -0.36626E-03 10896   0.178E-01    0.174E-02
RMM:   2    -0.186751534598E+03   -0.79776E-05   -0.89277E-05 10881   0.297E-02    0.153E-02
RMM:   3    -0.186751534655E+03   -0.56392E-07   -0.49424E-06 11652   0.808E-03    0.129E-02
RMM:   4    -0.186751534311E+03    0.34389E-06   -0.14384E-06 10855   0.308E-03    0.124E-02
RMM:   5    -0.186751534920E+03   -0.60965E-06   -0.12278E-06 10519   0.271E-03    0.139E-02
RMM:   6    -0.186751533773E+03    0.11472E-05   -0.81493E-07  9440   0.235E-03    0.232E-03
RMM:   7    -0.186751533720E+03    0.53325E-07   -0.85843E-08  6504   0.943E-04
  56 F= -.18675153E+03 E0= -.18675046E+03  d E =-.343575E-04  mag=     1.2739
       N       E                     dE             d eps       ncg     rms          rms(c)
DAV:   1    -0.186751554547E+03   -0.20773E-04   -0.24465E-03 10896   0.144E-01    0.171E-02
RMM:   2    -0.186751559754E+03   -0.52078E-05   -0.59005E-05 10886   0.237E-02    0.159E-02
RMM:   3    -0.186751559798E+03   -0.43781E-07   -0.40452E-06 11243   0.691E-03    0.138E-02
RMM:   4    -0.186751559117E+03    0.68065E-06   -0.12646E-06 10730   0.293E-03    0.105E-02
RMM:   5    -0.186751559474E+03   -0.35645E-06   -0.11631E-06  9925   0.272E-03    0.114E-02
RMM:   6    -0.186751558646E+03    0.82775E-06   -0.46550E-07  8560   0.192E-03    0.179E-03
RMM:   7    -0.186751558632E+03    0.13682E-07   -0.61996E-08  6396   0.810E-04
  57 F= -.18675156E+03 E0= -.18675049E+03  d E =-.249125E-04  mag=     1.2764
       N       E                     dE             d eps       ncg     rms          rms(c)
DAV:   1    -0.186751563537E+03   -0.48906E-05   -0.66820E-03 10896   0.238E-01    0.282E-02
RMM:   2    -0.186751577515E+03   -0.13979E-04   -0.16035E-04 10881   0.391E-02    0.261E-02
RMM:   3    -0.186751577446E+03    0.69709E-07   -0.10931E-05 11403   0.114E-02    0.218E-02
RMM:   4    -0.186751575734E+03    0.17114E-05   -0.35201E-06 11494   0.488E-03    0.178E-02
RMM:   5    -0.186751576709E+03   -0.97474E-06   -0.30330E-06 11105   0.433E-03    0.193E-02
RMM:   6    -0.186751574432E+03    0.22773E-05   -0.12520E-06  9917   0.302E-03    0.302E-03
RMM:   7    -0.186751574356E+03    0.75384E-07   -0.21163E-07  7505   0.123E-03
  58 F= -.18675157E+03 E0= -.18675051E+03  d E =-.406363E-04  mag=     1.2799
       N       E                     dE             d eps       ncg     rms          rms(c)
DAV:   1    -0.186751590957E+03   -0.16525E-04   -0.14702E-03 11136   0.112E-01    0.116E-02
RMM:   2    -0.186751593960E+03   -0.30032E-05   -0.36271E-05 10921   0.185E-02    0.106E-02
RMM:   3    -0.186751594043E+03   -0.83281E-07   -0.24957E-06 11822   0.523E-03    0.107E-02
RMM:   4    -0.186751593464E+03    0.57983E-06   -0.64036E-07  9438   0.208E-03    0.524E-03
RMM:   5    -0.186751593575E+03   -0.11185E-06   -0.56926E-07  9100   0.201E-03    0.667E-03
RMM:   6    -0.186751593212E+03    0.36325E-06   -0.23718E-07  7310   0.154E-03    0.132E-03
RMM:   7    -0.186751593199E+03    0.12968E-07   -0.46820E-08  6229   0.763E-04
  59 F= -.18675159E+03 E0= -.18675055E+03  d E =-.188429E-04  mag=     1.2831
       N       E                     dE             d eps       ncg     rms          rms(c)
DAV:   1    -0.186751599690E+03   -0.64782E-05   -0.76227E-03 10896   0.255E-01    0.259E-02
RMM:   2    -0.186751614410E+03   -0.14720E-04   -0.18595E-04 10904   0.418E-02    0.214E-02
RMM:   3    -0.186751615001E+03   -0.59080E-06   -0.12401E-05 11860   0.119E-02    0.212E-02
RMM:   4    -0.186751612454E+03    0.25464E-05   -0.36491E-06 12051   0.489E-03    0.141E-02
RMM:   5    -0.186751612837E+03   -0.38208E-06   -0.23822E-06 11606   0.378E-03    0.152E-02
RMM:   6    -0.186751611229E+03    0.16073E-05   -0.10592E-06 10391   0.274E-03    0.267E-03
RMM:   7    -0.186751611142E+03    0.86922E-07   -0.15722E-07  7128   0.114E-03
  60 F= -.18675161E+03 E0= -.18675058E+03  d E =-.367861E-04  mag=     1.2868
       N       E                     dE             d eps       ncg     rms          rms(c)
DAV:   1    -0.186751618873E+03   -0.76435E-05   -0.28588E-03 10928   0.150E-01    0.156E-02
RMM:   2    -0.186751624744E+03   -0.58708E-05   -0.66780E-05 11045   0.239E-02    0.101E-02
RMM:   3    -0.186751625307E+03   -0.56383E-06   -0.39744E-06 11914   0.674E-03    0.136E-02
RMM:   4    -0.186751624424E+03    0.88383E-06   -0.10762E-06 10499   0.254E-03    0.640E-03
RMM:   5    -0.186751624559E+03   -0.13550E-06   -0.73017E-07  9792   0.209E-03    0.733E-03
RMM:   6    -0.186751624153E+03    0.40649E-06   -0.32000E-07  8084   0.158E-03    0.148E-03
RMM:   7    -0.186751624135E+03    0.17397E-07   -0.63508E-08  6311   0.811E-04
  61 F= -.18675162E+03 E0= -.18675061E+03  d E =-.129929E-04  mag=     1.2901
       N       E                     dE             d eps       ncg     rms          rms(c)
DAV:   1    -0.186751624177E+03   -0.24322E-07   -0.13871E-04 11872   0.332E-02    0.358E-03
RMM:   2    -0.186751624539E+03   -0.36162E-06   -0.33981E-06 11001   0.533E-03    0.399E-03
RMM:   3    -0.186751624507E+03    0.31996E-07   -0.21157E-07  7145   0.165E-03
  62 F= -.18675162E+03 E0= -.18675062E+03  d E =-.133642E-04  mag=     1.2908
       N       E                     dE             d eps       ncg     rms          rms(c)
DAV:   1    -0.186751633307E+03   -0.87680E-05   -0.12611E-03 10928   0.985E-02    0.110E-02
RMM:   2    -0.186751635922E+03   -0.26151E-05   -0.28622E-05 11140   0.149E-02    0.716E-03
RMM:   3    -0.186751636252E+03   -0.33069E-06   -0.16615E-06 10912   0.442E-03    0.102E-02
RMM:   4    -0.186751635807E+03    0.44558E-06   -0.46243E-07  8827   0.180E-03    0.438E-03
RMM:   5    -0.186751635773E+03    0.33306E-07   -0.21945E-07  7466   0.132E-03
  63 F= -.18675164E+03 E0= -.18675064E+03  d E =-.112669E-04  mag=     1.2924
       N       E                     dE             d eps       ncg     rms          rms(c)
DAV:   1    -0.186751627178E+03    0.86287E-05   -0.10264E-02 10896   0.281E-01    0.300E-02
RMM:   2    -0.186751648942E+03   -0.21764E-04   -0.23456E-04 11055   0.430E-02    0.205E-02
RMM:   3    -0.186751651577E+03   -0.26344E-05   -0.14361E-05 11792   0.129E-02    0.278E-02
RMM:   4    -0.186751647797E+03    0.37801E-05   -0.39648E-06 11828   0.502E-03    0.133E-02
RMM:   5    -0.186751648787E+03   -0.99029E-06   -0.27626E-06 11353   0.394E-03    0.160E-02
RMM:   6    -0.186751647119E+03    0.16684E-05   -0.12596E-06 10094   0.281E-03    0.325E-03
RMM:   7    -0.186751647068E+03    0.50708E-07   -0.19667E-07  7521   0.115E-03
  64 F= -.18675165E+03 E0= -.18675067E+03  d E =-.225614E-04  mag=     1.2950
       N       E                     dE             d eps       ncg     rms          rms(c)
DAV:   1    -0.186751655067E+03   -0.79479E-05   -0.15200E-03 11120   0.107E-01    0.117E-02
RMM:   2    -0.186751658486E+03   -0.34194E-05   -0.34534E-05 11220   0.161E-02    0.933E-03
RMM:   3    -0.186751658936E+03   -0.45006E-06   -0.21725E-06 11352   0.481E-03    0.128E-02
RMM:   4    -0.186751658181E+03    0.75488E-06   -0.51467E-07  9038   0.182E-03    0.406E-03
RMM:   5    -0.186751658238E+03   -0.56538E-07   -0.30622E-07  8259   0.145E-03
  65 F= -.18675166E+03 E0= -.18675070E+03  d E =-.111697E-04  mag=     1.2966
       N       E                     dE             d eps       ncg     rms          rms(c)
DAV:   1    -0.186751648544E+03    0.96368E-05   -0.13657E-02 10976   0.321E-01    0.347E-02
RMM:   2    -0.186751677024E+03   -0.28479E-04   -0.30394E-04 11092   0.479E-02    0.238E-02
RMM:   3    -0.186751680585E+03   -0.35613E-05   -0.18004E-05 11830   0.143E-02    0.326E-02
RMM:   4    -0.186751675527E+03    0.50578E-05   -0.49269E-06 11799   0.552E-03    0.149E-02
RMM:   5    -0.186751676922E+03   -0.13946E-05   -0.35738E-06 11466   0.447E-03    0.182E-02
RMM:   6    -0.186751674736E+03    0.21855E-05   -0.16865E-06 10330   0.321E-03    0.347E-03
RMM:   7    -0.186751674698E+03    0.38208E-07   -0.24098E-07  7948   0.125E-03
  66 F= -.18675167E+03 E0= -.18675074E+03  d E =-.276300E-04  mag=     1.2995
       N       E                     dE             d eps       ncg     rms          rms(c)
DAV:   1    -0.186751687808E+03   -0.13071E-04   -0.13853E-03 11248   0.105E-01    0.111E-02
RMM:   2    -0.186751690913E+03   -0.31052E-05   -0.32876E-05 11194   0.166E-02    0.923E-03
RMM:   3    -0.186751691226E+03   -0.31324E-06   -0.23227E-06 11659   0.499E-03    0.113E-02
RMM:   4    -0.186751690635E+03    0.59107E-06   -0.56187E-07  9292   0.190E-03    0.443E-03
RMM:   5    -0.186751690795E+03   -0.15989E-06   -0.45975E-07  8854   0.178E-03    0.574E-03
RMM:   6    -0.186751690539E+03    0.25623E-06   -0.22651E-07  7392   0.149E-03    0.120E-03
RMM:   7    -0.186751690533E+03    0.51277E-08   -0.46762E-08  6105   0.743E-04
  67 F= -.18675169E+03 E0= -.18675077E+03  d E =-.158355E-04  mag=     1.3017
       N       E                     dE             d eps       ncg     rms          rms(c)
DAV:   1    -0.186751693568E+03   -0.30289E-05   -0.28360E-03 10896   0.150E-01    0.156E-02
RMM:   2    -0.186751699441E+03   -0.58735E-05   -0.65957E-05 11053   0.236E-02    0.107E-02
RMM:   3    -0.186751700096E+03   -0.65525E-06   -0.41159E-06 11927   0.684E-03    0.139E-02
RMM:   4    -0.186751699177E+03    0.91947E-06   -0.10206E-06 10506   0.253E-03    0.651E-03
RMM:   5    -0.186751699385E+03   -0.20809E-06   -0.73547E-07  9740   0.212E-03    0.748E-03
RMM:   6    -0.186751698969E+03    0.41557E-06   -0.35638E-07  8198   0.168E-03    0.159E-03
RMM:   7    -0.186751698952E+03    0.17613E-07   -0.65497E-08  6253   0.831E-04
  68 F= -.18675170E+03 E0= -.18675079E+03  d E =-.242538E-04  mag=     1.3039
       N       E                     dE             d eps       ncg     rms          rms(c)
DAV:   1    -0.186751706495E+03   -0.75259E-05   -0.88136E-04 11008   0.866E-02    0.104E-02
RMM:   2    -0.186751708504E+03   -0.20087E-05   -0.21709E-05 11131   0.143E-02    0.979E-03
RMM:   3    -0.186751708649E+03   -0.14529E-06   -0.17313E-06 11518   0.429E-03    0.109E-02
RMM:   4    -0.186751708048E+03    0.60160E-06   -0.40334E-07  8550   0.172E-03    0.297E-03
RMM:   5    -0.186751708158E+03   -0.11007E-06   -0.31929E-07  7954   0.159E-03    0.435E-03
RMM:   6    -0.186751707997E+03    0.16038E-06   -0.13881E-07  6654   0.132E-03    0.105E-03
RMM:   7    -0.186751707997E+03    0.27103E-09   -0.33106E-08  6086   0.627E-04
  69 F= -.18675171E+03 E0= -.18675081E+03  d E =-.904538E-05  mag=     1.3056
       N       E                     dE             d eps       ncg     rms          rms(c)
DAV:   1    -0.186751708837E+03   -0.83966E-06   -0.25502E-04 11296   0.466E-02    0.549E-03
RMM:   2    -0.186751709382E+03   -0.54475E-06   -0.62966E-06 11160   0.768E-03    0.404E-03
RMM:   3    -0.186751709516E+03   -0.13440E-06   -0.45659E-07  8773   0.230E-03    0.587E-03
RMM:   4    -0.186751709335E+03    0.18101E-06   -0.13467E-07  6597   0.127E-03    0.206E-03
RMM:   5    -0.186751709364E+03   -0.28400E-07   -0.97909E-08  6342   0.100E-03
  70 F= -.18675171E+03 E0= -.18675081E+03  d E =-.104119E-04  mag=     1.3067
       N       E                     dE             d eps       ncg     rms          rms(c)
DAV:   1    -0.186751711601E+03   -0.22661E-05   -0.24306E-04 10992   0.445E-02    0.673E-03
RMM:   2    -0.186751712006E+03   -0.40490E-06   -0.61531E-06 10980   0.811E-03    0.490E-03
RMM:   3    -0.186751712175E+03   -0.16850E-06   -0.59341E-07  9314   0.239E-03    0.701E-03
RMM:   4    -0.186751711906E+03    0.26826E-06   -0.19593E-07  6876   0.142E-03    0.261E-03
RMM:   5    -0.186751711943E+03   -0.36318E-07   -0.13656E-07  6661   0.119E-03
  71 F= -.18675171E+03 E0= -.18675082E+03  d E =-.257916E-05  mag=     1.3077
       N       E                     dE             d eps       ncg     rms          rms(c)
DAV:   1    -0.186751711907E+03   -0.52023E-09   -0.13257E-06 13080   0.401E-03    0.756E-04
RMM:   2    -0.186751711916E+03   -0.86329E-08   -0.52352E-08  5744   0.857E-04
  72 F= -.18675171E+03 E0= -.18675082E+03  d E =-.255199E-05  mag=     1.3079
       N       E                     dE             d eps       ncg     rms          rms(c)
DAV:   1    -0.186751713056E+03   -0.11491E-05   -0.70184E-05 11064   0.249E-02    0.309E-03
RMM:   2    -0.186751713215E+03   -0.15942E-06   -0.18872E-06 10919   0.454E-03    0.325E-03
RMM:   3    -0.186751713197E+03    0.18137E-07   -0.11619E-07  6288   0.133E-03
  73 F= -.18675171E+03 E0= -.18675082E+03  d E =-.128174E-05  mag=     1.3082
