SrIr2O4 prototype                       
           1
     4.643154    0.052298    0.000009
     0.053051    4.834943   -0.000013
     0.000026   -0.000036   15.558061
   Sr   Ir   O 
   4   8  16
Direct configuration=     1
   0.50831693  0.04269785  0.12500000
   0.49168310  0.95730215  0.37500000
   0.50831693  0.04269785  0.62500000
   0.49168310  0.95730215  0.87500000
   0.00000000  0.00000000  0.25000000
   0.00000000  0.00000000  0.00000000
   0.50000000  0.50000000  0.25000000
   0.50000000  0.50000000  0.00000000
   0.00000000  0.00000000  0.75000000
   0.00000000  0.00000000  0.50000000
   0.50000000  0.50000000  0.75000000
   0.50000000  0.50000000  0.50000000
   0.29573488  0.20539931  0.47997263
   0.79573488  0.29460069  0.22997263
   0.79573488  0.29460069  0.02002737
   0.70426512  0.79460073  0.02002737
   0.20426513  0.70539927  0.27002737
   0.70426512  0.79460073  0.22997263
   0.20426513  0.70539927  0.47997263
   0.29573488  0.20539931  0.27002737
   0.29573488  0.20539931  0.97997260
   0.79573488  0.29460069  0.72997260
   0.79573488  0.29460069  0.52002740
   0.70426512  0.79460073  0.52002740
   0.20426513  0.70539927  0.77002740
   0.70426512  0.79460073  0.72997260
   0.20426513  0.70539927  0.97997260
   0.29573488  0.20539931  0.77002740
SrIr2O4 prototype                       
           1
     5.237726    0.018212    0.000003
     0.018474    5.356664   -0.000004
     0.000009   -0.000013   15.715880
   Sr   Ir   O 
   4   8  16
Direct configuration=     2
   0.50455894  0.04428224  0.12499808
   0.49544398  0.95571386  0.37499730
   0.50455629  0.04428352  0.62500074
   0.49544051  0.95572030  0.87500388
   0.00000042  0.00000011  0.25000035
  -0.00000013  0.00000092  0.00000027
   0.49999984  0.50000016  0.25000000
   0.50000081  0.49999938 -0.00000017
  -0.00000049 -0.00000020  0.74999963
   0.00000020 -0.00000095  0.49999974
   0.50000022  0.49999995  0.75000001
   0.49999926  0.50000063  0.50000016
   0.29400318  0.20759452  0.48254834
   0.78929370  0.28773485  0.23248689
   0.78927190  0.28775663  0.01751320
   0.70597278  0.79239903  0.01745385
   0.21070607  0.71226480  0.26751341
   0.70599112  0.79240928  0.23254692
   0.21070236  0.71226860  0.48248734
   0.29400887  0.20759077  0.26745322
   0.29402689  0.20760061  0.98254603
   0.78927033  0.28775733  0.73248725
   0.78929676  0.28773043  0.51751291
   0.70599713  0.79240584  0.51745178
   0.21073004  0.71224304  0.76751246
   0.70597691  0.79238928  0.73254789
   0.21072914  0.71224447  0.98248656
   0.29402309  0.20761063  0.76745196
SrIr2O4 prototype                       
           1
     5.195219    0.020649    0.000004
     0.020946    5.319366   -0.000005
     0.000010   -0.000014   15.704597
   Sr   Ir   O 
   4   8  16
Direct configuration=     3
   0.50750361  0.04304677  0.12499935
   0.49249702  0.95695232  0.37499909
   0.50750304  0.04304706  0.62500025
   0.49249631  0.95695384  0.87500131
   0.00000009  0.00000003  0.25000012
  -0.00000002  0.00000022  0.00000009
   0.49999997  0.50000004  0.25000000
   0.50000017  0.49999986 -0.00000006
  -0.00000011 -0.00000005  0.74999988
   0.00000004 -0.00000023  0.49999991
   0.50000005  0.49999999  0.75000000
   0.49999984  0.50000014  0.50000006
   0.29537283  0.20591205  0.48084345
   0.79425769  0.29289694  0.23082268
   0.79425306  0.29290201  0.01917736
   0.70462183  0.79408622  0.01915729
   0.20574227  0.70710295  0.26917742
   0.70462597  0.79408882  0.23084297
   0.20574150  0.70710381  0.48082283
   0.29537403  0.20591122  0.26915707
   0.29537810  0.20591371  0.98084265
   0.79425274  0.29290214  0.73082278
   0.79425831  0.29289593  0.51917728
   0.70462724  0.79408806  0.51915661
   0.20574735  0.70709793  0.76917712
   0.70462267  0.79408389  0.73084328
   0.20574719  0.70709824  0.98082254
   0.29537733  0.20591611  0.76915667
SrIr2O4 prototype                       
           1
     5.197847    0.020498    0.000004
     0.020793    5.321671   -0.000005
     0.000010   -0.000014   15.705295
   Sr   Ir   O 
   4   8  16
Direct configuration=     4
   0.50731761  0.04312507  0.12499926
   0.49268317  0.95687383  0.37499896
   0.50731691  0.04312542  0.62500028
   0.49268229  0.95687566  0.87500150
   0.00000011  0.00000003  0.25000014
  -0.00000003  0.00000027  0.00000010
   0.49999996  0.50000005  0.25000000
   0.50000021  0.49999983 -0.00000007
  -0.00000013 -0.00000006  0.74999986
   0.00000005 -0.00000027  0.49999990
   0.50000006  0.49999999  0.75000000
   0.49999980  0.50000018  0.50000006
   0.29528686  0.20601995  0.48096411
   0.79394054  0.29256145  0.23094046
   0.79393483  0.29256759  0.01905958
   0.70470660  0.79397801  0.01903673
   0.20605941  0.70743843  0.26905966
   0.70471165  0.79398110  0.23096357
   0.20605846  0.70743947  0.48094063
   0.29528835  0.20601894  0.26903649
   0.29529331  0.20602191  0.98096320
   0.79393443  0.29256776  0.73094058
   0.79394131  0.29256022  0.51905949
   0.70471322  0.79398018  0.51903595
   0.20606568  0.70743233  0.76905931
   0.70470765  0.79397519  0.73096392
   0.20606547  0.70743271  0.98094031
   0.29529235  0.20602480  0.76903602
SrIr2O4 prototype                       
           1
     5.197184    0.020536    0.000004
     0.020832    5.321090   -0.000005
     0.000010   -0.000014   15.705119
   Sr   Ir   O 
   4   8  16
Direct configuration=     5
   0.50732920  0.04312019  0.12499926
   0.49267156  0.95687872  0.37499897
   0.50732851  0.04312054  0.62500028
   0.49267069  0.95688053  0.87500148
   0.00000011  0.00000003  0.25000014
  -0.00000003  0.00000026  0.00000010
   0.49999996  0.50000004  0.25000000
   0.50000021  0.49999983 -0.00000006
  -0.00000013 -0.00000006  0.74999986
   0.00000004 -0.00000027  0.49999990
   0.50000006  0.49999999  0.75000000
   0.49999981  0.50000017  0.50000006
   0.29529222  0.20601323  0.48095665
   0.79396029  0.29258232  0.23093317
   0.79395465  0.29258840  0.01906687
   0.70470132  0.79398475  0.01904419
   0.20603966  0.70741755  0.26906694
   0.70470631  0.79398781  0.23095611
   0.20603872  0.70741859  0.48093334
   0.29529369  0.20601223  0.26904395
   0.29529859  0.20601517  0.98095574
   0.79395426  0.29258856  0.73093329
   0.79396105  0.29258111  0.51906677
   0.70470786  0.79398689  0.51904342
   0.20604585  0.70741152  0.76906660
   0.70470235  0.79398196  0.73095646
   0.20604565  0.70741190  0.98093303
   0.29529765  0.20601803  0.76904348
SrIr2O4 prototype                       
           1
     5.148671    0.053899   -0.000002
     0.054557    5.381690    0.000045
    -0.000007    0.000135   15.636784
   Sr   Ir   O 
   4   8  16
Direct configuration=     6
   0.50732628  0.04312142  0.12499926
   0.49267449  0.95687749  0.37499897
   0.50732559  0.04312177  0.62500028
   0.49267361  0.95687931  0.87500149
   0.00000011  0.00000003  0.25000014
  -0.00000003  0.00000026  0.00000010
   0.49999996  0.50000004  0.25000000
   0.50000021  0.49999983 -0.00000006
  -0.00000013 -0.00000006  0.74999986
   0.00000004 -0.00000027  0.49999990
   0.50000006  0.49999999  0.75000000
   0.49999981  0.50000017  0.50000006
   0.29529087  0.20601492  0.48095853
   0.79395531  0.29257706  0.23093501
   0.79394965  0.29258316  0.01906503
   0.70470265  0.79398305  0.01904231
   0.20604463  0.70742281  0.26906510
   0.70470766  0.79398612  0.23095799
   0.20604369  0.70742385  0.48093518
   0.29529234  0.20601392  0.26904207
   0.29529726  0.20601687  0.98095762
   0.79394926  0.29258332  0.73093513
   0.79395607  0.29257584  0.51906494
   0.70470921  0.79398520  0.51904154
   0.20605085  0.70741677  0.76906476
   0.70470369  0.79398026  0.73095834
   0.20605064  0.70741715  0.98093486
   0.29529631  0.20601974  0.76904160
SrIr2O4 prototype                       
           1
     5.125221    0.070026   -0.000004
     0.070858    5.410982    0.000070
    -0.000015    0.000207   15.603754
   Sr   Ir   O 
   4   8  16
Direct configuration=     7
   0.50029615  0.04502095  0.12499982
   0.49970146  0.95497907  0.37500404
   0.50030433  0.04501658  0.62500968
   0.49969815  0.95498352  0.87498645
   0.00000026  0.00000020  0.24999800
  -0.00000083 -0.00000087 -0.00000129
   0.50000024  0.49999970  0.24999949
   0.49999827  0.50000024  0.00000097
  -0.00000006 -0.00000010  0.75000199
   0.00000075  0.00000096  0.50000131
   0.49999964  0.50000029  0.75000037
   0.50000161  0.49999980  0.49999919
   0.29612918  0.20687428  0.48172048
   0.79118851  0.28967827  0.23247701
   0.79115268  0.28971825  0.01752329
   0.70384943  0.79311328  0.01828019
   0.20881114  0.71032151  0.26752340
   0.70387577  0.79314630  0.23171888
   0.20882011  0.71029904  0.48247435
   0.29612426  0.20685386  0.26828106
   0.29615053  0.20688704  0.98171982
   0.79116837  0.28971878  0.73247008
   0.79117955  0.28970071  0.51752550
   0.70387092  0.79312530  0.51827948
   0.20883198  0.71028140  0.76752960
   0.70384344  0.79313226  0.73171209
   0.20884769  0.71028196  0.98247677
   0.29615658  0.20686744  0.76828797
SrIr2O4 prototype                       
           1
     5.128792    0.076938    0.000013
     0.077888    5.434174    0.000034
     0.000039    0.000103   15.652668
   Sr   Ir   O 
   4   8  16
Direct configuration=     8
   0.49685989  0.04595022  0.12500009
   0.50313616  0.95405034  0.37500650
   0.49687243  0.04594356  0.62501423
   0.50313166  0.95405605  0.87497916
   0.00000033  0.00000028  0.24999696
  -0.00000122 -0.00000141 -0.00000196
   0.50000037  0.49999954  0.24999924
   0.49999732  0.50000044  0.00000147
  -0.00000002 -0.00000011  0.75000302
   0.00000110  0.00000154  0.50000200
   0.49999943  0.50000043  0.75000054
   0.50000250  0.49999962  0.49999877
   0.29653556  0.20728244  0.48209039
   0.78984746  0.28830119  0.23322562
   0.78979680  0.28835749  0.01677482
   0.70343581  0.79270017  0.01791021
   0.21015205  0.71169855  0.26677494
   0.70347247  0.79274743  0.23208828
   0.21016592  0.71166478  0.48322158
   0.29652758  0.20725279  0.26791161
   0.29656418  0.20730034  0.98208984
   0.78982034  0.28835811  0.73321526
   0.78983368  0.28833501  0.51677815
   0.70346455  0.79271686  0.51790952
   0.21018013  0.71164211  0.76678432
   0.70342632  0.79272956  0.73207802
   0.21020361  0.71164267  0.98322532
   0.29657371  0.20727000  0.76792210
SrIr2O4 prototype                       
           1
     5.129630    0.078561    0.000017
     0.079539    5.439618    0.000026
     0.000052    0.000079   15.664150
   Sr   Ir   O 
   4   8  16
Direct configuration=     9
   0.49366342  0.04649169  0.12499975
   0.50633305  0.95350906  0.37500626
   0.49367331  0.04648688  0.62501086
   0.50633033  0.95351250  0.87498312
  -0.00000198  0.00000056  0.25000566
   0.00000076 -0.00000074  0.00000353
   0.50000106  0.50000002  0.25000147
   0.49999884  0.50000124 -0.00000305
   0.00000207 -0.00000052  0.74999440
  -0.00000088  0.00000080  0.49999641
   0.49999895  0.50000003  0.74999896
   0.50000118  0.49999883  0.50000259
   0.29698110  0.20771183  0.48240194
   0.78877065  0.28679892  0.23397054
   0.78872343  0.28685383  0.01602999
   0.70298958  0.79227116  0.01759863
   0.21122875  0.71320092  0.26603000
   0.70302614  0.79232231  0.23239947
   0.21123916  0.71316329  0.48396542
   0.29697384  0.20767759  0.26760044
   0.29701050  0.20772886  0.98240117
   0.78875097  0.28685668  0.73395769
   0.78876043  0.28683638  0.51603430
   0.70301890  0.79228797  0.51759822
   0.21124953  0.71314347  0.76604195
   0.70297880  0.79230807  0.73238676
   0.21127688  0.71314653  0.98397016
   0.29702134  0.20769185  0.76761337
SrIr2O4 prototype                       
           1
     5.131306    0.081806    0.000025
     0.082839    5.450506    0.000009
     0.000077    0.000030   15.687114
   Sr   Ir   O 
   4   8  16
Direct configuration=    10
   0.49291345  0.04661919  0.12499968
   0.50708312  0.95338160  0.37500620
   0.49292272  0.04661482  0.62501007
   0.50708082  0.95338451  0.87498404
  -0.00000252  0.00000062  0.25000770
   0.00000123 -0.00000058  0.00000481
   0.50000122  0.50000013  0.25000200
   0.49999920  0.50000143 -0.00000411
   0.00000256 -0.00000061  0.74999238
  -0.00000134  0.00000063  0.49999511
   0.49999884  0.49999993  0.74999859
   0.50000087  0.49999865  0.50000349
   0.29708549  0.20781206  0.48247485
   0.78851852  0.28644811  0.23414485
   0.78847210  0.28650269  0.01585570
   0.70288504  0.79217101  0.01752572
   0.21148085  0.71355176  0.26585568
   0.70292157  0.79222308  0.23247228
   0.21149045  0.71351323  0.48413948
   0.29707839  0.20777675  0.26752762
   0.29711507  0.20782889  0.98247402
   0.78850059  0.28650607  0.73413141
   0.78850914  0.28648641  0.51586023
   0.70291449  0.79218785  0.51752538
   0.21149993  0.71349407  0.76586823
   0.70287395  0.79220969  0.73245900
   0.21152817  0.71349772  0.98414445
   0.29712621  0.20779031  0.76754112
SrIr2O4 prototype                       
           1
     5.144104    0.077977    0.000042
     0.079074    5.444474   -0.000038
     0.000132   -0.000106   15.670505
   Sr   Ir   O 
   4   8  16
Direct configuration=    11
   0.49141366  0.04687440  0.12499953
   0.50858310  0.95312649  0.37500608
   0.49142169  0.04687089  0.62500850
   0.50858165  0.95312833  0.87498589
  -0.00000361  0.00000075  0.25001177
   0.00000215 -0.00000027  0.00000738
   0.50000154  0.50000035  0.25000304
   0.49999991  0.50000180 -0.00000622
   0.00000354 -0.00000080  0.74998835
  -0.00000227  0.00000029  0.49999249
   0.49999862  0.49999974  0.74999785
   0.50000025  0.49999828  0.50000528
   0.29729415  0.20801227  0.48262055
   0.78801455  0.28574734  0.23449321
   0.78796976  0.28580125  0.01550737
   0.70267605  0.79197098  0.01738001
   0.21198477  0.71425258  0.26550731
   0.70271253  0.79202487  0.23261781
   0.21199273  0.71421227  0.48448735
   0.29728740  0.20797480  0.26738210
   0.29732410  0.20802869  0.98261961
   0.78800011  0.28580568  0.73447861
   0.78800684  0.28578731  0.51551237
   0.70270578  0.79198788  0.51737980
   0.21200042  0.71419442  0.76552106
   0.70266435  0.79201318  0.73260338
   0.21203047  0.71419926  0.98449278
   0.29733586  0.20798699  0.76739674
SrIr2O4 prototype                       
           1
     5.182499    0.066488    0.000093
     0.067780    5.426381   -0.000180
     0.000296   -0.000516   15.620677
   Sr   Ir   O 
   4   8  16
Direct configuration=    12
   0.48955961  0.04697566  0.12499908
   0.51043917  0.95302563  0.37500366
   0.48956164  0.04697461  0.62500209
   0.51043988  0.95302423  0.87499515
   0.00000711 -0.00000216  0.24997796
  -0.00000422  0.00000132 -0.00001389
   0.49999769  0.50000045  0.24999428
   0.49999525  0.50000083  0.00001153
  -0.00000700  0.00000205  0.75002181
   0.00000443 -0.00000140  0.50001412
   0.50000177  0.49999961  0.75000405
   0.50000416  0.49999921  0.49999022
   0.29754814  0.20825625  0.48278900
   0.78733837  0.28451533  0.23507686
   0.78730808  0.28455548  0.01492415
   0.70243252  0.79173770  0.01721167
   0.21266168  0.71548426  0.26492420
   0.70245926  0.79178449  0.23278658
   0.21266886  0.71544144  0.48506989
   0.29754131  0.20821537  0.26721387
   0.29756757  0.20826106  0.98278766
   0.78734063  0.28456001  0.73506069
   0.78733183  0.28455680  0.51492974
   0.70245205  0.79174479  0.51721158
   0.21265937  0.71544050  0.76493847
   0.70242039  0.79178061  0.73277068
   0.21269121  0.71544649  0.98507603
   0.29757939  0.20821937  0.76722890
SrIr2O4 prototype                       
           1
     5.259288    0.043512    0.000196
     0.045190    5.390194   -0.000463
     0.000624   -0.001337   15.521022
   Sr   Ir   O 
   4   8  16
Direct configuration=    13
   0.48401157  0.04727568  0.12499773
   0.51599323  0.95272685  0.37499638
   0.48399567  0.04728198  0.62498284
   0.51600042  0.95271573  0.87502295
   0.00003916 -0.00001088  0.24987643
  -0.00002328  0.00000608 -0.00007776
   0.49998616  0.50000073  0.24996796
   0.49998130  0.49999792  0.00006483
  -0.00003857  0.00001059  0.75012229
   0.00002448 -0.00000646  0.50007906
   0.50001120  0.49999923  0.75002267
   0.50001585  0.50000198  0.49994499
   0.29830872  0.20898959  0.48329490
   0.78531226  0.28081378  0.23682965
   0.78532537  0.28081256  0.01317264
   0.70170326  0.79103653  0.01670614
   0.21468999  0.71918481  0.26317300
   0.70170085  0.79106200  0.23329341
   0.21469478  0.71913452  0.48681936
   0.29830165  0.20893844  0.26670866
   0.29829662  0.20895951  0.98329233
   0.78536444  0.28081748  0.73680875
   0.78530922  0.28085967  0.51317999
   0.70169224  0.79101417  0.51670640
   0.21463395  0.71918428  0.76318884
   0.70168982  0.79108162  0.73327311
   0.21467110  0.71919379  0.98682762
   0.29830866  0.20891783  0.76672484
SrIr2O4 prototype                       
           1
     5.206322    0.059360    0.000125
     0.060771    5.415154   -0.000268
     0.000398   -0.000771   15.589760
   Sr   Ir   O 
   4   8  16
Direct configuration=    14
   0.47299930  0.04785319  0.12499506
   0.52701747  0.95215183  0.37498174
   0.47294783  0.04787418  0.62494426
   0.52703747  0.95212125  0.87507868
   0.00010277 -0.00002825  0.24967272
  -0.00006110  0.00001553 -0.00020592
   0.49996328  0.50000125  0.24991515
   0.49995359  0.49999203  0.00017178
  -0.00010120  0.00002760  0.75032390
   0.00006425 -0.00001651  0.50020936
   0.50002992  0.49999852  0.75006002
   0.50003907  0.50000760  0.49985424
   0.29982167  0.21046456  0.48430993
   0.78127424  0.27337751  0.24034637
   0.78137357  0.27329292  0.00965837
   0.70025263  0.78962626  0.01569184
   0.21873237  0.72661910  0.25965949
   0.70019218  0.78960897  0.23431031
   0.21873216  0.72655434  0.49032953
   0.29981415  0.21039262  0.26569502
   0.29974684  0.21036431  0.98430490
   0.78142536  0.27329920  0.74031597
   0.78127840  0.27343175  0.50966928
   0.70018084  0.78954466  0.51569280
   0.21856985  0.72670505  0.75967849
   0.70023653  0.78967585  0.73428117
   0.21861734  0.72672220  0.99034204
   0.29975935  0.21032251  0.76571353
SrIr2O4 prototype                       
           1
     5.213087    0.051128   -0.000165
     0.052452    5.400849   -0.000343
    -0.000469   -0.000976   15.604775
   Sr   Ir   O 
   4   8  16
Direct configuration=    15
   0.48048219  0.04748546  0.12499686
   0.51952644  0.95251779  0.37499196
   0.48045485  0.04749637  0.62497099
   0.51953779  0.95250068  0.87504005
   0.00005958 -0.00001636  0.24981413
  -0.00003543  0.00000910 -0.00011696
   0.49997883  0.50000096  0.24995181
   0.49997245  0.49999620  0.00009754
  -0.00005867  0.00001595  0.75018394
   0.00003725 -0.00000966  0.50011891
   0.50001720  0.49999896  0.75003409
   0.50002326  0.50000364  0.49991723
   0.29878911  0.20943572  0.48360530
   0.78404061  0.27855280  0.23790520
   0.78408127  0.27852659  0.01209799
   0.70124264  0.79060999  0.01639596
   0.21596305  0.72144517  0.26209844
   0.70122185  0.79062235  0.23360441
   0.21596659  0.72138972  0.48789275
   0.29878187  0.20937843  0.26639866
   0.29875713  0.20938438  0.98360198
   0.78412472  0.27853114  0.73788139
   0.78403953  0.27860197  0.51210643
   0.70121233  0.79056971  0.51639643
   0.21587264  0.72147139  0.76211524
   0.70122842  0.79065624  0.73358140
   0.21591340  0.72148246  0.98790231
   0.29876922  0.20934288  0.76641556
SrIr2O4 prototype                       
           1
     5.211199    0.053426   -0.000084
     0.054774    5.404842   -0.000322
    -0.000227   -0.000919   15.600584
   Sr   Ir   O 
   4   8  16
Direct configuration=    16
   0.47853103  0.04705225  0.12498455
   0.52147768  0.95294945  0.37497892
   0.47849357  0.04706874  0.62494441
   0.52149449  0.95292779  0.87507031
   0.00002481  0.00014449  0.25040658
   0.00008442 -0.00005229  0.00026791
   0.50003255  0.49992522  0.25010647
   0.50006587  0.49993752 -0.00023467
  -0.00002859 -0.00014390  0.74960102
  -0.00008905  0.00005312  0.49972850
   0.49997902  0.50007511  0.74993312
   0.49994620  0.50006329  0.50019664
   0.29846498  0.20924886  0.48376744
   0.78259451  0.27737986  0.23883260
   0.78264065  0.27734585  0.01116693
   0.70157061  0.79079697  0.01623626
   0.21740369  0.72262090  0.26116267
   0.70153192  0.79079934  0.23376230
   0.21740268  0.72257185  0.48882532
   0.29846502  0.20919828  0.26623644
   0.29843455  0.20920424  0.98376372
   0.78268411  0.27735496  0.73881852
   0.78259956  0.27742560  0.51117723
   0.70152783  0.79074981  0.51623689
   0.21731498  0.72264381  0.76118994
   0.70155008  0.79083572  0.73374595
   0.21735188  0.72265654  0.98883488
   0.29845105  0.20916663  0.76625918
SrIr2O4 prototype                       
           1
     5.208869    0.047152   -0.000342
     0.048371    5.392301   -0.000367
    -0.000995   -0.001038   15.624376
   Sr   Ir   O 
   4   8  16
Direct configuration=    17
   0.47907516  0.04717433  0.12498799
   0.52093353  0.95282780  0.37498254
   0.47904052  0.04718927  0.62495183
   0.52094882  0.95280741  0.87506186
   0.00003440  0.00009948  0.25024136
   0.00005102 -0.00003516  0.00016058
   0.50001760  0.49994639  0.25006334
   0.50003987  0.49995390 -0.00014203
  -0.00003688 -0.00009917  0.74976358
  -0.00005385  0.00003561  0.49983738
   0.49998964  0.50005381  0.74996128
   0.49996765  0.50004662  0.50011872
   0.29855541  0.20930130  0.48372222
   0.78299812  0.27770875  0.23857398
   0.78304282  0.27767694  0.01142659
   0.70147911  0.79074450  0.01628080
   0.21700160  0.72229123  0.26142362
   0.70144540  0.79074967  0.23371826
   0.21700177  0.72224038  0.48856524
   0.29855344  0.20924883  0.26628168
   0.29852455  0.20925479  0.98371862
   0.78308619  0.27768476  0.73855719
   0.78300155  0.27775546  0.51143637
   0.70143980  0.79069927  0.51628138
   0.21691242  0.72231507  0.76144797
   0.70146032  0.79078535  0.73370006
   0.21695031  0.72232732  0.98857480
   0.29853983  0.20921610  0.76630279
SrIr2O4 prototype                       
           1
     5.205318    0.037589   -0.000734
     0.038611    5.373187   -0.000436
    -0.002165   -0.001219   15.660638
   Sr   Ir   O 
   4   8  16
Direct configuration=    18
   0.47792200  0.04647829  0.12497810
   0.52208561  0.95352043  0.37497363
   0.47790407  0.04649153  0.62493361
   0.52208814  0.95350888  0.87507728
   0.00004506  0.00014446  0.25012963
   0.00002586 -0.00001183  0.00005691
   0.50000559  0.49994472  0.25001999
   0.50000543  0.49997097 -0.00003202
  -0.00004406 -0.00014432  0.74987185
  -0.00002703  0.00001220  0.49994382
   0.49999492  0.50005620  0.74998470
   0.49999622  0.50002992  0.50002938
   0.29797136  0.20889193  0.48378794
   0.78174479  0.27721002  0.23928515
   0.78178485  0.27718092  0.01071891
   0.70206188  0.79114835  0.01621838
   0.21825992  0.72278757  0.26071647
   0.70202862  0.79115634  0.23378452
   0.21824739  0.72275031  0.48927516
   0.29797786  0.20884805  0.26622009
   0.29793581  0.20884409  0.98378461
   0.78182151  0.27719583  0.73926619
   0.78174974  0.27725308  0.51072892
   0.70203141  0.79111505  0.51621735
   0.21817441  0.72280606  0.76074050
   0.70203645  0.79118250  0.73376533
   0.21821496  0.72281566  0.98928524
   0.29795737  0.20881277  0.76623837
SrIr2O4 prototype                       
           1
     5.205984    0.039382   -0.000661
     0.040441    5.376770   -0.000423
    -0.001946   -0.001185   15.653840
   Sr   Ir   O 
   4   8  16
Direct configuration=    19
   0.47616243  0.04541297  0.12496303
   0.52384353  0.95458055  0.37496010
   0.47616999  0.04542365  0.62490586
   0.52382661  0.95458248  0.87510078
   0.00006137  0.00021319  0.24995960
  -0.00001249  0.00002378 -0.00010086
   0.49998725  0.49994214  0.24995401
   0.49995298  0.49999699  0.00013539
  -0.00005508 -0.00021330  0.75003661
   0.00001385 -0.00002350  0.50010581
   0.50000299  0.50005985  0.75002035
   0.50003973  0.50000445  0.49989343
   0.29708009  0.20826555  0.48388793
   0.77983300  0.27644595  0.24036734
   0.77986567  0.27642094  0.00964196
   0.70295119  0.79176631  0.01612340
   0.22017929  0.72354800  0.25964039
   0.70291865  0.79177860  0.23388536
   0.22014776  0.72353152  0.49035553
   0.29709948  0.20823479  0.26612634
   0.29703738  0.20821566  0.98388502
   0.77989245  0.27644673  0.74034509
   0.77983995  0.27648340  0.50965230
   0.70293423  0.79175124  0.51611992
   0.22009937  0.72355832  0.75966392
   0.70291564  0.79179023  0.73386468
   0.22014430  0.72356392  0.99036640
   0.29706850  0.20819561  0.76614031
SrIr2O4 prototype                       
           1
     5.203149    0.039611   -0.000593
     0.040646    5.378083   -0.000281
    -0.001744   -0.000772   15.652562
   Sr   Ir   O 
   4   8  16
Direct configuration=    20
   0.47649288  0.04561397  0.12496586
   0.52351340  0.95438053  0.37496262
   0.47649565  0.04562513  0.62491106
   0.52350012  0.95437993  0.87509637
   0.00005830  0.00020026  0.24999140
  -0.00000530  0.00001709 -0.00007135
   0.49999070  0.49994263  0.24996635
   0.49996280  0.49999211  0.00010408
  -0.00005299 -0.00020032  0.75000580
   0.00000618 -0.00001680  0.50007551
   0.50000147  0.50005916  0.75001369
   0.50003158  0.50000922  0.49991886
   0.29724750  0.20838369  0.48386923
   0.78019185  0.27659032  0.24016494
   0.78022600  0.27656456  0.00984339
   0.70278416  0.79164976  0.01614116
   0.21981902  0.72340431  0.25984164
   0.70275147  0.79166124  0.23386649
   0.21979096  0.72338391  0.49015346
   0.29726447  0.20835046  0.26614388
   0.29720613  0.20833419  0.98386624
   0.78025453  0.27658829  0.74014332
   0.78019852  0.27662884  0.50985367
   0.70276465  0.79163126  0.51613814
   0.21973806  0.72341616  0.75986526
   0.70275050  0.79167560  0.73384609
   0.21978207  0.72342250  0.99016418
   0.29723546  0.20831202  0.76615865
SrIr2O4 prototype                       
           1
     5.200198    0.039850   -0.000522
     0.040859    5.379449   -0.000132
    -0.001534   -0.000343   15.651231
   Sr   Ir   O 
   4   8  16
Direct configuration=    21
   0.47633218  0.04489745  0.12495118
   0.52368916  0.95509426  0.37495727
   0.47633365  0.04492325  0.62489763
   0.52366022  0.95508562  0.87510861
  -0.00002769 -0.00003374  0.24996281
   0.00001934  0.00001036  0.00006827
   0.50002257  0.50000704  0.25003393
   0.50004633  0.50002382 -0.00011538
   0.00002427  0.00003331  0.75004294
  -0.00002565 -0.00001075  0.49992802
   0.49998379  0.49999548  0.74999098
   0.49996149  0.49998120  0.50008925
   0.29659816  0.20790782  0.48383221
   0.77937595  0.27662743  0.24063257
   0.77940386  0.27660042  0.00937910
   0.70342535  0.79211545  0.01618151
   0.22061980  0.72338584  0.25937620
   0.70339682  0.79213193  0.23383127
   0.22059664  0.72336421  0.49062174
   0.29663436  0.20789456  0.26618384
   0.29656672  0.20787299  0.98383074
   0.77943385  0.27661820  0.74061176
   0.77939023  0.27665197  0.50938821
   0.70340744  0.79210170  0.51617630
   0.22056582  0.72336644  0.75940048
   0.70337047  0.79212608  0.73380993
   0.22060177  0.72338158  0.99063329
   0.29659319  0.20784609  0.76619534
SrIr2O4 prototype                       
           1
     5.199539    0.040584   -0.000503
     0.041598    5.381408   -0.000071
    -0.001477   -0.000165   15.649104
   Sr   Ir   O 
   4   8  16
Direct configuration=    22
   0.47616485  0.04415177  0.12493591
   0.52387220  0.95583703  0.37495169
   0.47616494  0.04419282  0.62488366
   0.52382695  0.95582003  0.87512135
  -0.00011724 -0.00027725  0.24993305
   0.00004500  0.00000334  0.00021361
   0.50005575  0.50007406  0.25010428
   0.50013334  0.50005684 -0.00034385
   0.00010474  0.00027643  0.75008161
  -0.00005881 -0.00000443  0.49977448
   0.49996538  0.49992921  0.74996735
   0.49988849  0.49995203  0.50026664
   0.29592188  0.20741262  0.48379366
   0.77852615  0.27666606  0.24111939
   0.77854759  0.27663782  0.00889575
   0.70409316  0.79260006  0.01622352
   0.22145386  0.72336662  0.25889165
   0.70406895  0.79262175  0.23379459
   0.22143577  0.72334363  0.49110923
   0.29597809  0.20742013  0.26622545
   0.29590079  0.20739306  0.98379379
   0.77857907  0.27664934  0.74109944
   0.77854840  0.27667611  0.50890364
   0.70407691  0.79259126  0.51621602
   0.22142798  0.72331468  0.75891661
   0.70401618  0.79259486  0.73377228
   0.22145550  0.72333891  0.99112165
   0.29592427  0.20736123  0.76623355
SrIr2O4 prototype                       
           1
     5.197900    0.042410   -0.000455
     0.043437    5.386280    0.000081
    -0.001337    0.000277   15.643813
   Sr   Ir   O 
   4   8  16
Direct configuration=    23
   0.47615206  0.04370673  0.12493454
   0.52388553  0.95628262  0.37495348
   0.47615364  0.04374039  0.62487897
   0.52383592  0.95627036  0.87512841
  -0.00012483 -0.00030609  0.24996088
   0.00002130 -0.00000753  0.00015097
   0.50003762  0.50008110  0.25007468
   0.50015474  0.50007109 -0.00029414
   0.00011108  0.00030384  0.75005218
  -0.00003622  0.00000480  0.49984452
   0.49997153  0.49991541  0.74997837
   0.49991762  0.49996333  0.50018768
   0.29557834  0.20717886  0.48376242
   0.77814616  0.27670548  0.24136538
   0.77816131  0.27668135  0.00865448
   0.70442896  0.79282560  0.01625946
   0.22182841  0.72332923  0.25865057
   0.70440311  0.79284807  0.23376398
   0.22181069  0.72330761  0.49135554
   0.29563858  0.20719184  0.26626078
   0.29556179  0.20716699  0.98376334
   0.77819196  0.27669022  0.74134584
   0.77817003  0.27670963  0.50866251
   0.70441563  0.79282142  0.51625102
   0.22181146  0.72326869  0.75867578
   0.70434754  0.79281939  0.73374242
   0.22183742  0.72329419  0.99136765
   0.29558876  0.20713539  0.76626828
SrIr2O4 prototype                       
           1
     5.194623    0.046062   -0.000359
     0.047114    5.396025    0.000386
    -0.001056    0.001160   15.633232
   Sr   Ir   O 
   4   8  16
Direct configuration=    24
   0.47612040  0.04260019  0.12493112
   0.52391852  0.95739052  0.37495793
   0.47612569  0.04261549  0.62486733