SrIr2O4 prototype                       
           1
     5.184142    0.081687    0.000130
     0.084516    5.326576    0.000019
     0.000418    0.000088   15.213499
   Sr   Ir   O 
   4   8  16
Direct configuration=     1
   0.47619045  0.03033563  0.12499829
   0.52402478  0.96969222  0.37499923
   0.47633838  0.03024219  0.62501861
   0.52361939  0.96976018  0.87499978
   0.00000405  0.99998108  0.25000036
   0.99998797  0.99999676  0.99999920
   0.50000330  0.49999871  0.25000013
   0.49999413  0.50000486  0.99999971
   0.99999843  0.99999748  0.75000028
   0.99999869  0.99999579  0.49999973
   0.50000036  0.49999880  0.74999934
   0.50000443  0.50000453  0.50000038
   0.29181744  0.21033828  0.48251568
   0.77702599  0.27537428  0.24903356
   0.77705635  0.27548334  0.00100985
   0.70811547  0.78965150  0.01738884
   0.22278297  0.72436344  0.25101838
   0.70820299  0.78957952  0.23253366
   0.22293042  0.72454353  0.49900033
   0.29172243  0.21044359  0.26748589
   0.29160066  0.21056260  0.98254479
   0.77712800  0.27551189  0.74898706
   0.77715128  0.27553342  0.50102667
   0.70834484  0.78944603  0.51749832
   0.22296840  0.72457954  0.75097016
   0.70834969  0.78953318  0.73255677
   0.22289819  0.72454659  0.99897610
   0.29174068  0.21050105  0.76743891
SrIr2O4 prototype                       
           1
     5.204744    0.054460   -0.000010
     0.056115    5.374877    0.000001
     0.000000    0.000041   15.521601
   Sr   Ir   O 
   4   8  16
Direct configuration=     2
   0.47617598  0.03208032  0.12499796
   0.52326285  0.96783276  0.37499423
   0.47591722  0.03208716  0.62512907
   0.52408781  0.96812716  0.87499308
   0.00009872  0.99997309  0.24998844
   0.00003157  0.00006121  0.00000673
   0.49999497  0.49992560  0.25000171
   0.49997706  0.50000134  0.99998767
   0.00009289  0.00007084  0.74998386
   0.00006152  0.00001580  0.50001292
   0.50008505  0.50005863  0.74999676
   0.49994615  0.49990359  0.49999355
   0.29185140  0.21038340  0.48247138
   0.77732186  0.27564749  0.24907313
   0.77735737  0.27567330  0.00094517
   0.70818440  0.78966523  0.01743357
   0.22259331  0.72422583  0.25096339
   0.70823255  0.78955867  0.23248066
   0.22269291  0.72429330  0.49904711
   0.29173775  0.21039665  0.26751657
   0.29166496  0.21052088  0.98250354
   0.77738555  0.27568654  0.74904574
   0.77741898  0.27570126  0.50096266
   0.70836694  0.78949444  0.51752573
   0.22274189  0.72434138  0.75091891
   0.70832801  0.78951883  0.73251406
   0.22265943  0.72430085  0.99903841
   0.29173103  0.21045448  0.76747399
SrIr2O4 prototype                       
           1
     5.201573    0.058650    0.000011
     0.060486    5.367443    0.000004
     0.000065    0.000048   15.474184
   Sr   Ir   O 
   4   8  16
Direct configuration=     3
   0.47619679  0.03074522  0.12499822
   0.52383153  0.96925167  0.37499810
   0.47624773  0.03067322  0.62504332
   0.52372257  0.96937916  0.87499828
   0.00002671  0.99997969  0.24999770
  -0.00000121  0.00001212  0.00000088
   0.50000089  0.49998150  0.25000048
   0.49999001  0.50000395  0.99999702
   0.00002150  0.00001520  0.74999661
   0.00001388  0.00000082  0.50000268
   0.50002101  0.50001329  0.74999876
   0.49998988  0.49998052  0.49999885
   0.29182584  0.21034905  0.48250577
   0.77709851  0.27543996  0.24904242
   0.77712963  0.27552950  0.00099538
   0.70813209  0.78965508  0.01739885
   0.22273669  0.72433015  0.25100608
   0.70820996  0.78957477  0.23252180
   0.22287203  0.72448354  0.49901079
   0.29172584  0.21043265  0.26749275
   0.29161585  0.21055314  0.98253556
   0.77719078  0.27555423  0.74900019
   0.77721644  0.27557421  0.50101236
   0.70835041  0.78945751  0.51750445
   0.22291271  0.72452245  0.75095869
   0.70834440  0.78952970  0.73254721
   0.22283953  0.72448766  0.99899004
   0.29173811  0.21049007  0.76744675
SrIr2O4 prototype                       
           1
     5.202898    0.056899    0.000002
     0.058660    5.370550    0.000003
     0.000038    0.000045   15.494000
   Sr   Ir   O 
   4   8  16
Direct configuration=     4
   0.47619474  0.03094882  0.12499818
   0.52374315  0.96903482  0.37499752
   0.47619828  0.03088860  0.62505626
   0.52377749  0.96918850  0.87499750
   0.00003775  0.99997874  0.24999630
   0.00000386  0.00001963  0.00000177
   0.49999993  0.49997297  0.25000067
   0.49998802  0.50000354  0.99999561
   0.00003249  0.00002374  0.74999469
   0.00002119  0.00000314  0.50000422
   0.50003087  0.50002025  0.74999846
   0.49998311  0.49996876  0.49999805
   0.29182978  0.21035430  0.48250058
   0.77713292  0.27547179  0.24904705
   0.77716466  0.27555161  0.00098781
   0.70814011  0.78965667  0.01740409
   0.22271463  0.72431413  0.25099964
   0.70821341  0.78957233  0.23251560
   0.22284441  0.72445439  0.49901627
   0.29172764  0.21042717  0.26749635
   0.29162335  0.21054826  0.98253073
   0.77722075  0.27557456  0.74900706
   0.77724759  0.27559375  0.50100486
   0.70835298  0.78946316  0.51750766
   0.22288637  0.72449470  0.75095269
   0.70834188  0.78952803  0.73254221
   0.22281176  0.72445902  0.99899734
   0.29173699  0.21048464  0.76745086
SrIr2O4 prototype                       
           1
     5.202454    0.057486    0.000005
     0.059272    5.369509    0.000003
     0.000047    0.000046   15.487358
   Sr   Ir   O 
   4   8  16
Direct configuration=     5
   0.47619567  0.03086361  0.12499819
   0.52378003  0.96912554  0.37499776
   0.47621904  0.03079845  0.62505084
   0.52375445  0.96926831  0.87499783
   0.00003313  0.99997914  0.24999689
   0.00000174  0.00001649  0.00000140
   0.50000033  0.49997654  0.25000059
   0.49998886  0.50000371  0.99999620
   0.00002790  0.00002017  0.74999549
   0.00001813  0.00000217  0.50000358
   0.50002675  0.50001734  0.74999859
   0.49998594  0.49997368  0.49999839
   0.29182814  0.21035210  0.48250275
   0.77711854  0.27545848  0.24904511
   0.77715002  0.27554237  0.00099098
   0.70813676  0.78965600  0.01740189
   0.22272385  0.72432083  0.25100234
   0.70821197  0.78957336  0.23251820
   0.22285595  0.72446658  0.49901397
   0.29172688  0.21042946  0.26749484
   0.29162021  0.21055030  0.98253276
   0.77720822  0.27556606  0.74900418
   0.77723457  0.27558558  0.50100800
   0.70835191  0.78946079  0.51750632
   0.22289738  0.72450630  0.75095520
   0.70834293  0.78952873  0.73254431
   0.22282336  0.72447100  0.99899428
   0.29173746  0.21048691  0.76744914
SrIr2O4 prototype                       
           1
     5.219151    0.077222   -0.000059
     0.080743    5.287050    0.000007
    -0.000144    0.000058   15.471681
   Sr   Ir   O 
   4   8  16
Direct configuration=     6
   0.47619537  0.03089216  0.12499819
   0.52376766  0.96909515  0.37499768
   0.47621209  0.03082865  0.62505265
   0.52376216  0.96924158  0.87499772
   0.00003468  0.99997901  0.24999669
   0.00000245  0.00001754  0.00000152
   0.50000019  0.49997534  0.25000061
   0.49998858  0.50000365  0.99999600
   0.00002944  0.00002136  0.74999522
   0.00001916  0.00000249  0.50000379
   0.50002813  0.50001832  0.74999855
   0.49998499  0.49997203  0.49999827
   0.29182869  0.21035284  0.48250203
   0.77712336  0.27546294  0.24904576
   0.77715492  0.27554547  0.00098992
   0.70813788  0.78965623  0.01740263
   0.22272076  0.72431858  0.25100144
   0.70821245  0.78957301  0.23251733
   0.22285209  0.72446249  0.49901474
   0.29172714  0.21042869  0.26749534
   0.29162126  0.21054962  0.98253208
   0.77721242  0.27556891  0.74900514
   0.77723894  0.27558832  0.50100695
   0.70835227  0.78946159  0.51750677
   0.22289369  0.72450241  0.75095436
   0.70834258  0.78952849  0.73254360
   0.22281947  0.72446699  0.99899530
   0.29173730  0.21048615  0.76744972
SrIr2O4 prototype                       
           1
     5.205734    0.061363   -0.000007
     0.063490    5.353309    0.000004
     0.000009    0.000049   15.484278
   Sr   Ir   O 
   4   8  16
Direct configuration=     7
   0.47602138  0.03121395  0.12500290
   0.52394045  0.96876649  0.37500365
   0.47589318  0.03134495  0.62491726
   0.52402421  0.96872434  0.87497738
  -0.00021971  0.00001954  0.25006485
  -0.00002766 -0.00007966 -0.00003577
   0.50005467  0.50008637  0.25000572
   0.50005579  0.50000502  0.00005100
  -0.00017935 -0.00011716  0.75009269
  -0.00011242 -0.00004320  0.49993883
   0.49985656  0.49989373  0.75000215
   0.50019724  0.50013340  0.50001750
   0.29152896  0.21048281  0.48248095
   0.77758074  0.27605602  0.24911078
   0.77755215  0.27610920  0.00090617
   0.70851296  0.78957699  0.01742656
   0.22242015  0.72382429  0.25092748
   0.70856809  0.78945436  0.23249041
   0.22249863  0.72389260  0.49909201
   0.29142876  0.21051777  0.26751664
   0.29137590  0.21063163  0.98250852
   0.77761316  0.27610777  0.74908881
   0.77763516  0.27611413  0.50092386
   0.70867500  0.78938429  0.51753094
   0.22252721  0.72394689  0.75088568
   0.70868347  0.78944057  0.73251804
   0.22244138  0.72390632  0.99907917
   0.29145407  0.21060659  0.76747581
SrIr2O4 prototype                       
           1
     5.238539    0.066048   -0.000026
     0.068959    5.332007    0.000100
    -0.000049    0.000327   15.608480
   Sr   Ir   O 
   4   8  16
Direct configuration=     8
   0.47616188  0.03095081  0.12499911
   0.52380089  0.96903523  0.37499885
   0.47615045  0.03092264  0.62502616
   0.52381250  0.96914725  0.87499374
  -0.00001580 -0.00001429  0.25001003
  -0.00000388 -0.00000042 -0.00000578
   0.50001142  0.49999592  0.25000161
   0.50000195  0.50000410  0.00000676
  -0.00001259 -0.00000472  0.75001429
  -0.00000718 -0.00000630  0.49999108
   0.49999356  0.49999490  0.74999925
   0.50002779  0.50000233  0.50000204
   0.29176950  0.21037585  0.48249790
   0.77721644  0.27557335  0.24905848
   0.77723594  0.27565030  0.00097353
   0.70821224  0.78964277  0.01740731
   0.22265921  0.72422680  0.25098697
   0.70828280  0.78955225  0.23251206
   0.22277976  0.72435666  0.49902986
   0.29166808  0.21044419  0.26749951
   0.29157273  0.21056397  0.98252747
   0.77729404  0.27566918  0.74902151
   0.77731962  0.27568618  0.50099070
   0.70841621  0.78944833  0.51751150
   0.22281882  0.72439918  0.75094093
   0.70841010  0.78951334  0.73253860
   0.22274228  0.72436277  0.99901171
   0.29168136  0.21050745  0.76745482
SrIr2O4 prototype                       
           1
     5.215045    0.062693   -0.000013
     0.065042    5.347263    0.000031
    -0.000007    0.000127   15.519528
   Sr   Ir   O 
   4   8  16
Direct configuration=     9
   0.47608766  0.02958649  0.12501224
   0.52399501  0.97010057  0.37501254
   0.47605553  0.02982955  0.62497488
   0.52392613  0.97024662  0.87501241
   0.00006954  0.00005335  0.24989054
   0.00000930  0.00001217  0.00007013
   0.49993874  0.49999178  0.24999113
   0.49998006  0.50001076 -0.00007132
   0.00010034  0.00003943  0.74983795
   0.00004359  0.00003701  0.50011695
   0.50004532  0.50003293  0.75001734
   0.49990569  0.49997472  0.50000122
   0.29129379  0.21041615  0.48248670
   0.77750911  0.27638068  0.24912877
   0.77752733  0.27640295  0.00091270
   0.70866692  0.78964997  0.01744461
   0.22238689  0.72354583  0.25092549
   0.70872693  0.78954221  0.23248978
   0.22247957  0.72359961  0.49910985
   0.29120135  0.21042775  0.26753618
   0.29112833  0.21055167  0.98251545
   0.77754403  0.27641804  0.74910790
   0.77758277  0.27641027  0.50092227
   0.70886285  0.78949311  0.51754982
   0.22248817  0.72366343  0.75089080
   0.70882219  0.78948772  0.73252175
   0.22242989  0.72359983  0.99910009
   0.29119310  0.21049543  0.76749185
SrIr2O4 prototype                       
           1
     5.214423    0.062604   -0.000012
     0.064939    5.347667    0.000029
    -0.000006    0.000122   15.517176
   Sr   Ir   O 
   4   8  16
Direct configuration=    10
   0.47613941  0.03056748  0.12500291
   0.52385769  0.96933464  0.37500282
   0.47612223  0.03061549  0.62501131
   0.52384612  0.96945618  0.87499915
   0.00000886  0.00000476  0.24997543
  -0.00000007  0.00000313  0.00001620
   0.49999047  0.49999472  0.24999858
   0.49999565  0.50000596 -0.00001584
   0.00002000  0.00000774  0.74996324
   0.00000749  0.00000590  0.50002752
   0.50000851  0.50000561  0.75000449
   0.49999257  0.49999450  0.50000180
   0.29163239  0.21038690  0.48249466
   0.77730145  0.27580033  0.24907883
   0.77732054  0.27586192  0.00095592
   0.70834332  0.78964506  0.01741811
   0.22258017  0.72403533  0.25096917
   0.70841083  0.78954968  0.23250561
   0.22269262  0.72414380  0.49905302
   0.29153351  0.21043930  0.26751013
   0.29144460  0.21056026  0.98252399
   0.77736670  0.27587971  0.74904652
   0.77739605  0.27588975  0.50097089
   0.70854501  0.78946117  0.51752259
   0.22272292  0.72419228  0.75092641
   0.70852889  0.78950638  0.73253372
   0.22265162  0.72414825  0.99903729
   0.29154059  0.21050380  0.76746554
SrIr2O4 prototype                       
           1
     5.233666    0.065968    0.000012
     0.068711    5.340803   -0.000005
     0.000067    0.000022   15.513546
   Sr   Ir   O 
   4   8  16
Direct configuration=    11
   0.47614080  0.03059334  0.12500266
   0.52385403  0.96931444  0.37500256
   0.47612401  0.03063621  0.62501228
   0.52384398  0.96943533  0.87499880
   0.00000724  0.00000347  0.24997769
  -0.00000032  0.00000289  0.00001477
   0.49999184  0.49999479  0.24999878
   0.49999606  0.50000583 -0.00001437
   0.00001786  0.00000690  0.74996657
   0.00000653  0.00000508  0.50002515
   0.50000753  0.50000489  0.75000415
   0.49999488  0.49999503  0.50000181
   0.29164138  0.21038613  0.48249487
   0.77729592  0.27578502  0.24907750
   0.77731503  0.27584765  0.00095707
   0.70833473  0.78964492  0.01741740
   0.22258532  0.72404824  0.25097033
   0.70840244  0.78954988  0.23250603
   0.22269829  0.72415815  0.49905150
   0.29154233  0.21043961  0.26750943
   0.29145300  0.21056049  0.98252422
   0.77736198  0.27586552  0.74904489
   0.77739108  0.27587603  0.50097218
   0.70853657  0.78946032  0.51752187
   0.22272917  0.72420623  0.75092736
   0.70852109  0.78950686  0.73253404
   0.22265752  0.72416272  0.99903562
   0.29154982  0.21050402  0.76746484
SrIr2O4 prototype                       
           1
     5.221738    0.063883   -0.000003
     0.066372    5.345058    0.000016
     0.000022    0.000084   15.515796
   Sr   Ir   O 
   4   8  16
Direct configuration=    12
   0.47670491  0.02921134  0.12498636
   0.52351448  0.97072624  0.37500519
   0.47658859  0.02931843  0.62497654
   0.52333844  0.97073385  0.87499083
  -0.00005388 -0.00008545  0.25025877
  -0.00002929 -0.00000888 -0.00019168
   0.50003501  0.49999810  0.25001031
   0.49996205  0.49997033  0.00015248
  -0.00011189 -0.00006544  0.75039035
  -0.00004899 -0.00006714  0.49968688
   0.50000697  0.50000162  0.74993240
   0.50004732  0.50001144  0.49996276
   0.29123555  0.21030102  0.48248378
   0.77744644  0.27644579  0.24909827
   0.77747498  0.27647351  0.00090918
   0.70876387  0.78975838  0.01741980
   0.22246303  0.72352149  0.25091667
   0.70881172  0.78966243  0.23248821
   0.22253964  0.72356389  0.49907695
   0.29115794  0.21033970  0.26750016
   0.29108030  0.21045331  0.98250858
   0.77749580  0.27647488  0.74907148
   0.77751293  0.27649339  0.50091917
   0.70892257  0.78958415  0.51752220
   0.22257509  0.72360956  0.75087969
   0.70890261  0.78963773  0.73251862
   0.22251264  0.72355484  0.99906851
   0.29115127  0.21038153  0.76745755
SrIr2O4 prototype                       
           1
     5.224559    0.064376    0.000001
     0.066925    5.344051    0.000011
     0.000033    0.000070   15.515264
   Sr   Ir   O 
   4   8  16
Direct configuration=    13
   0.47635589  0.03006930  0.12499647
   0.52372482  0.96984986  0.37500355
   0.47630107  0.03013650  0.62499870
   0.52365125  0.96992772  0.87499577
  -0.00001617 -0.00003028  0.25008450
  -0.00001141 -0.00000159 -0.00006368
   0.50000835  0.49999606  0.25000316
   0.49998304  0.49999235  0.00004903
  -0.00003179 -0.00002059  0.75012760
  -0.00001474 -0.00002233  0.49989661
   0.50000732  0.50000365  0.74997689
   0.50001494  0.50000127  0.49998697
   0.29148615  0.21035370  0.48249066
   0.77735378  0.27603573  0.24908539
   0.77737648  0.27608512  0.00093887
   0.70849889  0.78968811  0.01741831
   0.22253831  0.72384838  0.25094994
   0.70855900  0.78959272  0.23249926
   0.22263735  0.72393267  0.49906117
   0.29139529  0.21040157  0.26750591
   0.29131043  0.21051970  0.98251828
   0.77741343  0.27609672  0.74905499
   0.77743796  0.27611026  0.50095204
   0.70868423  0.78950743  0.51752199
   0.22266997  0.72397984  0.75090924
   0.70866705  0.78955664  0.73252818
   0.22260184  0.72393208  0.99904812
   0.29139736  0.21045741  0.76746207
SrIr2O4 prototype                       
           1
     5.223479    0.064187   -0.000001
     0.066714    5.344437    0.000013
     0.000028    0.000075   15.515468
   Sr   Ir   O 
   4   8  16
Direct configuration=    14
   0.47643852  0.02986661  0.12499408
   0.52367506  0.97005692  0.37500394
   0.47636913  0.02994323  0.62499346
   0.52357720  0.97011817  0.87499460
  -0.00002511 -0.00004332  0.25012571
  -0.00001565 -0.00000331 -0.00009395
   0.50001467  0.49999655  0.25000485
   0.49997807  0.49998714  0.00007349
  -0.00005078 -0.00003120  0.75018973
  -0.00002286 -0.00003292  0.49984702
   0.50000723  0.50000317  0.74996637
   0.50002262  0.50000368  0.49998125
   0.29142675  0.21034123  0.48248903
   0.77737579  0.27613263  0.24908844
   0.77739987  0.27617690  0.00093185
   0.70856170  0.78970474  0.01741866
   0.22252043  0.72377114  0.25094207
   0.70861891  0.78960921  0.23249665
   0.22261415  0.72384552  0.49906490
   0.29133903  0.21038693  0.26750455
   0.29125588  0.21050399  0.98251599
   0.77743300  0.27618608  0.74905889
   0.77745577  0.27620079  0.50094427
   0.70874073  0.78952558  0.51752204
   0.22264745  0.72389234  0.75090225
   0.70872289  0.78957582  0.73252592
   0.22258066  0.72384293  0.99905294
   0.29133902  0.21043946  0.76746100
SrIr2O4 prototype                       
           1
     5.229058    0.065344   -0.000016
     0.067991    5.342635   -0.000052
    -0.000013   -0.000115   15.513042
   Sr   Ir   O 
   4   8  16
Direct configuration=    15
   0.47640690  0.02994422  0.12499499
   0.52369411  0.96997764  0.37500379
   0.47634308  0.03001723  0.62499547
   0.52360554  0.97004524  0.87499505
  -0.00002169 -0.00003833  0.25010993
  -0.00001402 -0.00000265 -0.00008236
   0.50001225  0.49999636  0.25000420
   0.49997997  0.49998914  0.00006413
  -0.00004351 -0.00002714  0.75016594
  -0.00001976 -0.00002886  0.49986601
   0.50000727  0.50000336  0.74997039
   0.50001968  0.50000276  0.49998344
   0.29144947  0.21034601  0.48248965
   0.77736737  0.27609553  0.24908727
   0.77739092  0.27614175  0.00093454
   0.70853767  0.78969837  0.01741853
   0.22252727  0.72380071  0.25094509
   0.70859599  0.78960290  0.23249765
   0.22262302  0.72387889  0.49906347
   0.29136056  0.21039254  0.26750507
   0.29127675  0.21051000  0.98251686
   0.77742552  0.27615186  0.74905740
   0.77744896  0.27616613  0.50094724
   0.70871912  0.78951863  0.51752202
   0.22265606  0.72392584  0.75090493
   0.70870153  0.78956848  0.73252679
   0.22258876  0.72387707  0.99905110
   0.29136134  0.21044633  0.76746141
SrIr2O4 prototype                       
           1
     5.230791    0.065703   -0.000020
     0.068387    5.342075   -0.000073
    -0.000026   -0.000174   15.512288
   Sr   Ir   O 
   4   8  16
Direct configuration=    16
   0.47652074  0.02954450  0.12499092
   0.52361380  0.97039584  0.37500632
   0.47644574  0.02961961  0.62498619
   0.52349128  0.97042090  0.87499301
  -0.00001199 -0.00003240  0.25010806
  -0.00000642  0.00000035 -0.00009157
   0.50001073  0.49999356  0.25000442
   0.49996159  0.49994274  0.00006240
  -0.00002692 -0.00001127  0.75013106
  -0.00000382 -0.00001908  0.49988859
   0.50000730  0.50000503  0.74998909
   0.50001793  0.49999854  0.49999730
   0.29132438  0.21031937  0.48249173
   0.77740666  0.27627369  0.24909643
   0.77743086  0.27631201  0.00092479
   0.70866165  0.78972792  0.01741953
   0.22249152  0.72364885  0.25093460
   0.70871439  0.78963304  0.23249908
   0.22257578  0.72371016  0.49907207
   0.29124228  0.21036071  0.26750342
   0.29116184  0.21047574  0.98251857
   0.77745820  0.27631707  0.74906895
   0.77747951  0.27633321  0.50093476
   0.70882961  0.78955412  0.51752163
   0.22260957  0.72375684  0.75089639
   0.70881041  0.78960380  0.73252874
   0.22254361  0.72370596  0.99906305
   0.29123987  0.21040920  0.76746046
SrIr2O4 prototype                       
           1
     5.229778    0.065592   -0.000063
     0.068262    5.341957   -0.000141
    -0.000151   -0.000370   15.510661
   Sr   Ir   O 
   4   8  16
Direct configuration=    17
   0.47655609  0.02942032  0.12498966
   0.52358886  0.97052576  0.37500710
   0.47647762  0.02949608  0.62498331
   0.52345581  0.97053761  0.87499238
  -0.00000898 -0.00003056  0.25010747
  -0.00000406  0.00000128 -0.00009443
   0.50001026  0.49999269  0.25000449
   0.49995590  0.49992833  0.00006186
  -0.00002177 -0.00000635  0.75012023
   0.00000112 -0.00001603  0.49989561
   0.50000731  0.50000555  0.74999490
   0.50001739  0.49999723  0.50000160
   0.29128558  0.21031111  0.48249237
   0.77741883  0.27632903  0.24909928
   0.77744324  0.27636489  0.00092176
   0.70870011  0.78973709  0.01741984
   0.22248044  0.72360168  0.25093134
   0.70875112  0.78964240  0.23249952
   0.22256113  0.72365775  0.49907474
   0.29120559  0.21035083  0.26750291
   0.29112619  0.21046510  0.98251910
   0.77746832  0.27636840  0.74907253
   0.77748898  0.27638511  0.50093088
   0.70886388  0.78956514  0.51752151
   0.22259517  0.72370434  0.75089374
   0.70884418  0.78961476  0.73252935
   0.22252962  0.72365281  0.99906676
   0.29120219  0.21039767  0.76746017
SrIr2O4 prototype                       
           1
     5.228983    0.065504   -0.000097
     0.068163    5.341864   -0.000194
    -0.000249   -0.000524   15.509383
   Sr   Ir   O 
   4   8  16
Direct configuration=    18
   0.47648947  0.02944128  0.12499092
   0.52361668  0.97050832  0.37501276
   0.47642910  0.02950198  0.62498588
   0.52350536  0.97051292  0.87499708
   0.00000893 -0.00000551  0.25003714
   0.00000915  0.00000647 -0.00003553
   0.49999994  0.49999292  0.25000156
   0.49996255  0.49993182  0.00001831
   0.00000557  0.00000718  0.75003545
   0.00001427 -0.00000034  0.49996635
   0.50000428  0.50000304  0.75000161
   0.50000925  0.49999642  0.50000262
   0.29127178  0.21031238  0.48250006
   0.77741836  0.27632152  0.24910258
   0.77744129  0.27635901  0.00092516
   0.70871026  0.78973092  0.01741759
   0.22248226  0.72359923  0.25093556
   0.70876240  0.78963940  0.23250825
   0.22256085  0.72365626  0.49907638
   0.29119298  0.21035100  0.26750122
   0.29111180  0.21046235  0.98252703
   0.77746550  0.27636282  0.74907610
   0.77748819  0.27637729  0.50093363
   0.70887414  0.78956379  0.51751857
   0.22259396  0.72370486  0.75089821
   0.70885376  0.78961161  0.73253760
   0.22252899  0.72365213  0.99906921
   0.29118906  0.21039894  0.76745870
SrIr2O4 prototype                       
           1
     5.229151    0.065523   -0.000090
     0.068184    5.341884   -0.000183
    -0.000228   -0.000491   15.509653
   Sr   Ir   O 
   4   8  16
Direct configuration=    19
   0.47643717  0.02945773  0.12499191
   0.52363853  0.97049464  0.37501720
   0.47639101  0.02950661  0.62498789
   0.52354426  0.97049354  0.87500076
   0.00002299  0.00001416  0.24998192
   0.00001951  0.00001055  0.00001070
   0.49999185  0.49999310  0.24999926
   0.49996777  0.49993456 -0.00001588
   0.00002704  0.00001780  0.74996889
   0.00002460  0.00001198  0.50002188
   0.50000190  0.50000107  0.75000688
   0.50000286  0.49999578  0.50000343
   0.29126094  0.21031338  0.48250610
   0.77741798  0.27631563  0.24910517
   0.77743976  0.27635440  0.00092783
   0.70871824  0.78972608  0.01741583
   0.22248369  0.72359731  0.25093886
   0.70877126  0.78963704  0.23251511
   0.22256062  0.72365509  0.49907767
   0.29118307  0.21035113  0.26749990
   0.29110050  0.21046018  0.98253326
   0.77746328  0.27635845  0.74907890
   0.77748758  0.27637115  0.50093579
   0.70888220  0.78956273  0.51751626
   0.22259301  0.72370527  0.75090173
   0.70886128  0.78960914  0.73254408
   0.22252849  0.72365159  0.99907114
   0.29117875  0.21039994  0.76745755
SrIr2O4 prototype                       
           1
     5.228699    0.065320   -0.000080
     0.067975    5.341602   -0.000163
    -0.000201   -0.000432   15.506344
   Sr   Ir   O 
   4   8  16
Direct configuration=    20
   0.47644821  0.02945426  0.12499170
   0.52363392  0.97049752  0.37501626
   0.47639904  0.02950564  0.62498746
   0.52353605  0.97049763  0.87499998
   0.00002002  0.00001001  0.24999357
   0.00001732  0.00000969  0.00000095
   0.49999356  0.49999306  0.24999975
   0.49996667  0.49993398 -0.00000867
   0.00002251  0.00001556  0.74998293
   0.00002242  0.00000938  0.50001017
   0.50000240  0.50000149  0.75000577
   0.50000420  0.49999591  0.50000326
   0.29126323  0.21031317  0.48250483
   0.77741806  0.27631687  0.24910463
   0.77744009  0.27635537  0.00092727
   0.70871656  0.78972710  0.01741620
   0.22248338  0.72359771  0.25093817
   0.70876940  0.78963754  0.23251366
   0.22256067  0.72365533  0.49907740
   0.29118516  0.21035110  0.26750018
   0.29110288  0.21046064  0.98253195
   0.77746375  0.27635937  0.74907830
   0.77748771  0.27637245  0.50093533
   0.70888050  0.78956295  0.51751674
   0.22259321  0.72370518  0.75090098
   0.70885969  0.78960966  0.73254271
   0.22252859  0.72365170  0.99907073
   0.29118092  0.21039973  0.76745779
SrIr2O4 prototype                       
           1
     5.228362    0.065169   -0.000073
     0.067818    5.341391   -0.000147
    -0.000181   -0.000389   15.503875
   Sr   Ir   O 
   4   8  16
Direct configuration=    21
   0.47639062  0.02944083  0.12499358
   0.52366621  0.97052010  0.37501312
   0.47635852  0.02947706  0.62499061
   0.52359467  0.97051987  0.87500022
   0.00001235  0.00000569  0.24998614
   0.00001175  0.00000511  0.00001220
   0.49999304  0.49999563  0.24999974
   0.49998785  0.49998050 -0.00001020
   0.00001435  0.00000670  0.74998633
   0.00001374  0.00000386  0.50001204
   0.50000168  0.49999964  0.74999860
   0.50000404  0.49999740  0.49999869
   0.29124091  0.21031548  0.48251138
   0.77742317  0.27632369  0.24910470
   0.77744537  0.27636172  0.00092729
   0.70873792  0.78972060  0.01741001
   0.22248297  0.72358728  0.25093851
   0.70879294  0.78963594  0.23252019
   0.22255880  0.72364397  0.49907754
   0.29116629  0.21035212  0.26749404
   0.29108049  0.21045646  0.98253814
   0.77746695  0.27636622  0.74907890
   0.77749209  0.27637799  0.50093569
   0.70890306  0.78956266  0.51750981
   0.22259102  0.72369429  0.75090096
   0.70888099  0.78960731  0.73254878
   0.22252763  0.72364051  0.99907067
   0.29116072  0.21040137  0.76745233
SrIr2O4 prototype                       
           1
     5.228365    0.065015   -0.000055
     0.067659    5.341539   -0.000106
    -0.000129   -0.000268   15.502835
   Sr   Ir   O 
   4   8  16
Direct configuration=    22
   0.47634764  0.02943080  0.12499498
   0.52369031  0.97053695  0.37501078
   0.47632827  0.02945574  0.62499296
   0.52363842  0.97053646  0.87500040
   0.00000662  0.00000246  0.24998059
   0.00000759  0.00000170  0.00002060
   0.49999265  0.49999755  0.24999974
   0.50000366  0.50001523 -0.00001135
   0.00000827  0.00000010  0.74998886
   0.00000725 -0.00000026  0.50001344
   0.50000114  0.49999826  0.74999325
   0.50000391  0.49999851  0.49999528
   0.29122425  0.21031721  0.48251628
   0.77742698  0.27632877  0.24910476
   0.77744932  0.27636646  0.00092731
   0.70875387  0.78971574  0.01740539
   0.22248266  0.72357949  0.25093877
   0.70881051  0.78963475  0.23252506
   0.22255740  0.72363549  0.49907765
   0.29115220  0.21035288  0.26748946
   0.29106377  0.21045335  0.98254277
   0.77746935  0.27637134  0.74907934
   0.77749535  0.27638213  0.50093595
   0.70891990  0.78956245  0.51750463
   0.22258938  0.72368616  0.75090094
   0.70889689  0.78960555  0.73255330
   0.22252692  0.72363215  0.99907062
   0.29114564  0.21040259  0.76744825
SrIr2O4 prototype                       
           1
     5.228366    0.064976   -0.000051
     0.067619    5.341576   -0.000095
    -0.000116   -0.000238   15.502573
   Sr   Ir   O 
   4   8  16
Direct configuration=    23
   0.47626111  0.02941681  0.12499602
   0.52376012  0.97056374  0.37500543
   0.47625493  0.02942812  0.62499504
   0.52373079  0.97056575  0.87499912
  -0.00000493 -0.00000726  0.25000715
  -0.00000422 -0.00000386 -0.00000828
   0.49999591  0.49999934  0.25000008
   0.50000540  0.50002122  0.00000454
  -0.00000020 -0.00000344  0.75000647
  -0.00000057 -0.00000573  0.49999252
   0.50000530  0.50000205  0.74999941
   0.50000461  0.49999819  0.49999990
   0.29119591  0.21032255  0.48252321
   0.77743585  0.27634292  0.24910321
   0.77745618  0.27638125  0.00092586
   0.70878391  0.78971059  0.01739728
   0.22247934  0.72356657  0.25093691
   0.70884063  0.78963076  0.23253151
   0.22255433  0.72362024  0.49907687
   0.29112703  0.21035826  0.26748016
   0.29103943  0.21045437  0.98254946
   0.77747591  0.27638398  0.74907884
   0.77750264  0.27639562  0.50093445
   0.70894878  0.78956079  0.51749549
   0.22258503  0.72367096  0.75089959
   0.70892417  0.78960125  0.73255931
   0.22252283  0.72361789  0.99907028
   0.29111992  0.21040708  0.76744018
SrIr2O4 prototype                       
           1
     5.228602    0.064822   -0.000037
     0.067461    5.341833   -0.000059
    -0.000076   -0.000135   15.502788
   Sr   Ir   O 
   4   8  16
Direct configuration=    24
   0.47623928  0.02941329  0.12499628
   0.52377773  0.97057050  0.37500408
   0.47623643  0.02942115  0.62499557