   28   28  901    2
  0.1484046E+02  0.5406971E-09  0.5199535E-09  0.1480161E-08  0.5000000E-15
  1.000000000000000E-004
  CAR 
 SrIr2O4 prototype                       
    208     20    136
 
  0.3742002E-15  0.3742002E-15  0.1262379E-14  0.3125000E-01
    1      -30.530939    -30.530938   1.000000   1.000000
    2      -30.214352    -30.214352   1.000000   1.000000
    3      -29.963525    -29.963525   1.000000   1.000000
    4      -29.912314    -29.912315   1.000000   1.000000
    5      -16.939492    -16.939492   1.000000   1.000000
    6      -16.673714    -16.673714   1.000000   1.000000
    7      -16.615948    -16.615948   1.000000   1.000000
    8      -16.320706    -16.320706   1.000000   1.000000
    9      -16.234300    -16.234300   1.000000   1.000000
   10      -16.117421    -16.117421   1.000000   1.000000
   11      -16.031357    -16.031357   1.000000   1.000000
   12      -15.944452    -15.944452   1.000000   1.000000
   13      -15.597097    -15.597097   1.000000   1.000000
   14      -15.443756    -15.443755   1.000000   1.000000
   15      -15.345760    -15.345759   1.000000   1.000000
   16      -15.331776    -15.331775   1.000000   1.000000
   17      -15.258842    -15.258842   1.000000   1.000000
   18      -14.300976    -14.300977   1.000000   1.000000
   19      -14.195018    -14.195016   1.000000   1.000000
   20      -13.906585    -13.906586   1.000000   1.000000
   21      -12.698152    -12.698151   1.000000   1.000000
   22      -12.662059    -12.662059   1.000000   1.000000
   23      -12.512693    -12.512692   1.000000   1.000000
   24      -12.422298    -12.422297   1.000000   1.000000
   25      -12.208803    -12.208804   1.000000   1.000000
   26      -12.201727    -12.201727   1.000000   1.000000
   27      -12.179850    -12.179851   1.000000   1.000000
   28      -12.109137    -12.109137   1.000000   1.000000
   29      -12.050500    -12.050501   1.000000   1.000000
   30      -11.832525    -11.832524   1.000000   1.000000
   31      -11.690917    -11.690917   1.000000   1.000000
   32      -11.382580    -11.382580   1.000000   1.000000
   33       -6.120628     -6.120628   1.000000   1.000000
   34       -6.008204     -6.008204   1.000000   1.000000
   35       -5.788966     -5.788966   1.000000   1.000000
   36       -5.677586     -5.677586   1.000000   1.000000
   37       -4.318607     -4.318607   1.000000   1.000000
   38       -4.233019     -4.233019   1.000000   1.000000
   39       -4.143960     -4.143960   1.000000   1.000000
   40       -4.027652     -4.027652   1.000000   1.000000
   41       -3.566021     -3.566022   1.000000   1.000000
   42       -3.483197     -3.483196   1.000000   1.000000
   43       -2.863933     -2.863932   1.000000   1.000000
   44       -2.715707     -2.715707   1.000000   1.000000
   45       -2.685063     -2.685063   1.000000   1.000000
   46       -2.629898     -2.629898   1.000000   1.000000
   47       -2.579844     -2.579845   1.000000   1.000000
   48       -2.546948     -2.546949   1.000000   1.000000
   49       -2.394603     -2.394603   1.000000   1.000000
   50       -2.362816     -2.362817   1.000000   1.000000
   51       -2.188205     -2.188205   1.000000   1.000000
   52       -2.051087     -2.051086   1.000000   1.000000
   53       -1.962882     -1.962882   1.000000   1.000000
   54       -1.881402     -1.881402   1.000000   1.000000
   55       -1.783338     -1.783338   1.000000   1.000000
   56       -1.751466     -1.751466   1.000000   1.000000
   57       -1.642617     -1.642616   1.000000   1.000000
   58       -1.465130     -1.465130   1.000000   1.000000
   59       -1.324016     -1.324016   1.000000   1.000000
   60       -1.180670     -1.180671   1.000000   1.000000
   61       -1.121303     -1.121303   1.000000   1.000000
   62       -1.046779     -1.046780   1.000000   1.000000
   63       -0.905501     -0.905501   1.000000   1.000000
   64       -0.754973     -0.754973   1.000000   1.000000
   65       -0.698010     -0.698010   1.000000   1.000000
   66       -0.596928     -0.596928   1.000000   1.000000
   67       -0.538811     -0.538811   1.000000   1.000000
   68       -0.460822     -0.460822   1.000000   1.000000
   69       -0.301689     -0.301689   1.000000   1.000000
   70       -0.209993     -0.209994   1.000000   1.000000
   71       -0.165449     -0.165448   1.000000   1.000000
   72       -0.003922     -0.003922   1.000000   1.000000
   73        0.042275      0.042275   1.000000   1.000000
   74        0.199997      0.199997   1.000000   1.000000
   75        0.339450      0.339450   1.000000   1.000000
   76        0.370567      0.370567   1.000000   1.000000
   77        0.434888      0.434888   1.000000   1.000000
   78        0.594977      0.594977   1.000000   1.000000
   79        0.727300      0.727301   1.000000   1.000000
   80        0.819943      0.819943   1.000000   1.000000
   81        0.942543      0.942542   1.000000   1.000000
   82        1.200738      1.200737   1.000000   1.000000
   83        1.308254      1.308252   1.000000   1.000000
   84        1.517083      1.517083   1.000000   1.000000
   85        1.546252      1.546252   1.000000   1.000000
   86        1.571479      1.571478   1.000000   1.000000
   87        1.684527      1.684527   1.000000   1.000000
   88        1.928971      1.928972   1.000000   1.000000
   89        1.956419      1.956419   1.000000   1.000000
   90        2.200994      2.200994   1.000000   1.000000
   91        2.332425      2.332426   1.000000   1.000000
   92        2.393159      2.393159   1.000000   1.000000
   93        2.668323      2.668324   1.000000   1.000000
   94        2.921964      2.921964   1.000000   1.000000
   95        3.097568      3.097568   1.000000   1.000000
   96        3.133502      3.133502   0.999999   0.999999
   97        3.158976      3.158976   0.999998   0.999998
   98        3.222145      3.222145   0.999986   0.999986
   99        3.434334      3.434334   0.997988   0.997988
  100        3.530835      3.530833   0.995067   0.995067
  101        3.623381      3.623381   1.006591   1.006591
  102        3.693583      3.693583   1.036469   1.036469
  103        3.808418      3.808416   1.002440   1.002443
  104        3.850350      3.850350   0.895665   0.895666
  105        4.016635      4.016637   0.124317   0.124308
  106        4.026786      4.026786   0.090035   0.090033
  107        4.416364      4.416364   0.002756   0.002756
  108        4.432066      4.432066   0.002214   0.002214
  109        4.573020      4.573020   0.000122   0.000122
  110        4.639185      4.639184   0.000019   0.000019
  111        4.738008      4.738009   0.000001   0.000001
  112        4.804352      4.804352   0.000000   0.000000
  113        4.874763      4.874764   0.000000   0.000000
  114        5.052760      5.052760   0.000000   0.000000
  115        5.359390      5.359390   0.000000   0.000000
  116        5.924279      5.924278   0.000000   0.000000
  117        6.208581      6.208580   0.000000   0.000000
  118        6.740143      6.740144   0.000000   0.000000
  119        6.916115      6.916114   0.000000   0.000000
  120        7.127449      7.127449   0.000000   0.000000
  121        7.275285      7.275286   0.000000   0.000000
  122        7.730007      7.730007   0.000000   0.000000
  123        8.747652      8.747652   0.000000   0.000000
  124        8.878839      8.878839   0.000000   0.000000
  125        8.966904      8.966904   0.000000   0.000000
  126        9.077595      9.077595   0.000000   0.000000
  127        9.348815      9.348815   0.000000   0.000000
  128        9.469131      9.469131   0.000000   0.000000
  129        9.592505      9.592505   0.000000   0.000000
  130        9.824304      9.824304   0.000000   0.000000
  131        9.987940      9.987939   0.000000   0.000000
  132       10.027950     10.027950   0.000000   0.000000
  133       10.165063     10.165036   0.000000   0.000000
  134       10.239241     10.239186   0.000000   0.000000
  135       10.250455     10.250379   0.000000   0.000000
  136       10.364868     10.365857   0.000000   0.000000
 
  0.2500000E+00  0.3742344E-15  0.1273287E-14  0.6250000E-01
    1      -30.530408    -30.530408   1.000000   1.000000
    2      -30.213707    -30.213706   1.000000   1.000000
    3      -29.962838    -29.962838   1.000000   1.000000
    4      -29.911744    -29.911744   1.000000   1.000000
    5      -16.938159    -16.938159   1.000000   1.000000
    6      -16.707639    -16.707639   1.000000   1.000000
    7      -16.554077    -16.554077   1.000000   1.000000
    8      -16.360835    -16.360835   1.000000   1.000000
    9      -16.183245    -16.183245   1.000000   1.000000
   10      -16.133746    -16.133746   1.000000   1.000000
   11      -16.034874    -16.034873   1.000000   1.000000
   12      -15.905248    -15.905248   1.000000   1.000000
   13      -15.649818    -15.649818   1.000000   1.000000
   14      -15.498438    -15.498438   1.000000   1.000000
   15      -15.446028    -15.446028   1.000000   1.000000
   16      -15.407743    -15.407742   1.000000   1.000000
   17      -15.281021    -15.281020   1.000000   1.000000
   18      -14.269994    -14.269996   1.000000   1.000000
   19      -14.196840    -14.196838   1.000000   1.000000
   20      -13.913193    -13.913194   1.000000   1.000000
   21      -12.685067    -12.685067   1.000000   1.000000
   22      -12.581794    -12.581794   1.000000   1.000000
   23      -12.483288    -12.483287   1.000000   1.000000
   24      -12.384347    -12.384346   1.000000   1.000000
   25      -12.196963    -12.196963   1.000000   1.000000
   26      -12.165113    -12.165114   1.000000   1.000000
   27      -12.119250    -12.119251   1.000000   1.000000
   28      -12.054624    -12.054625   1.000000   1.000000
   29      -12.042587    -12.042588   1.000000   1.000000
   30      -11.800305    -11.800304   1.000000   1.000000
   31      -11.678956    -11.678957   1.000000   1.000000
   32      -11.370754    -11.370755   1.000000   1.000000
   33       -6.130866     -6.130866   1.000000   1.000000
   34       -6.010414     -6.010415   1.000000   1.000000
   35       -5.301702     -5.301702   1.000000   1.000000
   36       -5.203423     -5.203423   1.000000   1.000000
   37       -4.325345     -4.325345   1.000000   1.000000
   38       -4.242265     -4.242265   1.000000   1.000000
   39       -4.149641     -4.149641   1.000000   1.000000
   40       -4.037275     -4.037275   1.000000   1.000000
   41       -3.503598     -3.503598   1.000000   1.000000
   42       -3.443516     -3.443516   1.000000   1.000000
   43       -2.953555     -2.953554   1.000000   1.000000
   44       -2.871899     -2.871899   1.000000   1.000000
   45       -2.800626     -2.800625   1.000000   1.000000
   46       -2.746913     -2.746913   1.000000   1.000000
   47       -2.682236     -2.682236   1.000000   1.000000
   48       -2.620738     -2.620738   1.000000   1.000000
   49       -2.519179     -2.519179   1.000000   1.000000
   50       -2.407173     -2.407173   1.000000   1.000000
   51       -2.333679     -2.333679   1.000000   1.000000
   52       -2.192511     -2.192511   1.000000   1.000000
   53       -2.158253     -2.158253   1.000000   1.000000
   54       -2.054084     -2.054084   1.000000   1.000000
   55       -1.897349     -1.897349   1.000000   1.000000
   56       -1.792216     -1.792215   1.000000   1.000000
   57       -1.658040     -1.658039   1.000000   1.000000
   58       -1.591283     -1.591283   1.000000   1.000000
   59       -1.470949     -1.470949   1.000000   1.000000
   60       -1.405853     -1.405853   1.000000   1.000000
   61       -1.249462     -1.249462   1.000000   1.000000
   62       -1.220069     -1.220070   1.000000   1.000000
   63       -1.008802     -1.008802   1.000000   1.000000
   64       -0.963844     -0.963844   1.000000   1.000000
   65       -0.878429     -0.878429   1.000000   1.000000
   66       -0.784340     -0.784340   1.000000   1.000000
   67       -0.625312     -0.625312   1.000000   1.000000
   68       -0.509633     -0.509633   1.000000   1.000000
   69       -0.360506     -0.360506   1.000000   1.000000
   70       -0.333956     -0.333956   1.000000   1.000000
   71       -0.184316     -0.184316   1.000000   1.000000
   72       -0.140336     -0.140337   1.000000   1.000000
   73       -0.026057     -0.026057   1.000000   1.000000
   74        0.203285      0.203285   1.000000   1.000000
   75        0.318740      0.318741   1.000000   1.000000
   76        0.528440      0.528440   1.000000   1.000000
   77        0.630082      0.630081   1.000000   1.000000
   78        0.691381      0.691381   1.000000   1.000000
   79        0.739255      0.739255   1.000000   1.000000
   80        0.832883      0.832883   1.000000   1.000000
   81        1.043959      1.043959   1.000000   1.000000
   82        1.168280      1.168279   1.000000   1.000000
   83        1.510936      1.510936   1.000000   1.000000
   84        1.642681      1.642681   1.000000   1.000000
   85        1.867775      1.867774   1.000000   1.000000
   86        1.974927      1.974927   1.000000   1.000000
   87        2.004863      2.004864   1.000000   1.000000
   88        2.062810      2.062811   1.000000   1.000000
   89        2.166290      2.166290   1.000000   1.000000
   90        2.328800      2.328800   1.000000   1.000000
   91        2.383354      2.383354   1.000000   1.000000
   92        2.416190      2.416189   1.000000   1.000000
   93        2.715851      2.715850   1.000000   1.000000
   94        2.782113      2.782113   1.000000   1.000000
   95        2.885148      2.885148   1.000000   1.000000
   96        3.027378      3.027379   1.000000   1.000000
   97        3.179163      3.179163   0.999997   0.999997
   98        3.232482      3.232482   0.999981   0.999981
   99        3.415454      3.415455   0.998520   0.998520
  100        3.546695      3.546694   0.995241   0.995241
  101        3.598573      3.598574   1.000438   1.000438
  102        3.654253      3.654253   1.018051   1.018051
  103        3.713357      3.713358   1.044953   1.044953
  104        3.802904      3.802902   1.011557   1.011559
  105        3.870522      3.870522   0.820618   0.820616
  106        3.913066      3.913067   0.622019   0.622017
  107        4.087738      4.087738  -0.033975  -0.033975
  108        4.132495      4.132495  -0.051465  -0.051465
  109        4.556945      4.556945   0.000182   0.000182
  110        4.602545      4.602545   0.000055   0.000055
  111        4.698372      4.698372   0.000003   0.000003
  112        4.829194      4.829195   0.000000   0.000000
  113        5.021892      5.021894   0.000000   0.000000
  114        5.455168      5.455168   0.000000   0.000000
  115        5.620646      5.620645   0.000000   0.000000
  116        5.874328      5.874327   0.000000   0.000000
  117        6.253449      6.253449   0.000000   0.000000
  118        6.900090      6.900091   0.000000   0.000000
  119        7.578816      7.578816   0.000000   0.000000
  120        7.664836      7.664835   0.000000   0.000000
  121        7.758439      7.758439   0.000000   0.000000
  122        7.982329      7.982330   0.000000   0.000000
  123        8.706747      8.706747   0.000000   0.000000
  124        9.002644      9.002644   0.000000   0.000000
  125        9.068607      9.068608   0.000000   0.000000
  126        9.212420      9.212421   0.000000   0.000000
  127        9.397115      9.397115   0.000000   0.000000
  128        9.614965      9.614964   0.000000   0.000000
  129        9.762324      9.762324   0.000000   0.000000
  130        9.843584      9.843584   0.000000   0.000000
  131        9.976178      9.976177   0.000000   0.000000
  132       10.061574     10.061573   0.000000   0.000000
  133       10.207747     10.207716   0.000000   0.000000
  134       10.353550     10.352978   0.000000   0.000000
  135       10.401157     10.400542   0.000000   0.000000
  136       10.476659     10.477180   0.000000   0.000000
 
  0.5000000E+00  0.3743106E-15  0.1290634E-14  0.3125000E-01
    1      -30.529886    -30.529886   1.000000   1.000000
    2      -30.213067    -30.213066   1.000000   1.000000
    3      -29.962157    -29.962158   1.000000   1.000000
    4      -29.911182    -29.911182   1.000000   1.000000
    5      -16.940839    -16.940840   1.000000   1.000000
    6      -16.742124    -16.742124   1.000000   1.000000
    7      -16.482637    -16.482637   1.000000   1.000000
    8      -16.419628    -16.419628   1.000000   1.000000
    9      -16.198863    -16.198863   1.000000   1.000000
   10      -16.083665    -16.083665   1.000000   1.000000
   11      -15.866374    -15.866374   1.000000   1.000000
   12      -15.844445    -15.844445   1.000000   1.000000
   13      -15.760134    -15.760134   1.000000   1.000000
   14      -15.680015    -15.680014   1.000000   1.000000
   15      -15.617030    -15.617030   1.000000   1.000000
   16      -15.443565    -15.443565   1.000000   1.000000
   17      -15.263257    -15.263256   1.000000   1.000000
   18      -14.239644    -14.239645   1.000000   1.000000
   19      -14.202180    -14.202178   1.000000   1.000000
   20      -13.922672    -13.922673   1.000000   1.000000
   21      -12.685419    -12.685419   1.000000   1.000000
   22      -12.508524    -12.508524   1.000000   1.000000
   23      -12.447643    -12.447643   1.000000   1.000000
   24      -12.363244    -12.363243   1.000000   1.000000
   25      -12.189152    -12.189152   1.000000   1.000000
   26      -12.129369    -12.129369   1.000000   1.000000
   27      -12.059249    -12.059250   1.000000   1.000000
   28      -12.015218    -12.015219   1.000000   1.000000
   29      -11.982666    -11.982666   1.000000   1.000000
   30      -11.774753    -11.774752   1.000000   1.000000
   31      -11.659374    -11.659375   1.000000   1.000000
   32      -11.353732    -11.353732   1.000000   1.000000
   33       -6.141111     -6.141111   1.000000   1.000000
   34       -6.013026     -6.013026   1.000000   1.000000
   35       -4.356402     -4.356402   1.000000   1.000000
   36       -4.273020     -4.273020   1.000000   1.000000
   37       -4.255727     -4.255727   1.000000   1.000000
   38       -4.129812     -4.129812   1.000000   1.000000
   39       -4.119613     -4.119613   1.000000   1.000000
   40       -4.015501     -4.015501   1.000000   1.000000
   41       -3.980539     -3.980539   1.000000   1.000000
   42       -3.729805     -3.729805   1.000000   1.000000
   43       -3.378398     -3.378398   1.000000   1.000000
   44       -3.336542     -3.336542   1.000000   1.000000
   45       -3.158821     -3.158822   1.000000   1.000000
   46       -2.945352     -2.945352   1.000000   1.000000
   47       -2.816511     -2.816510   1.000000   1.000000
   48       -2.766975     -2.766974   1.000000   1.000000
   49       -2.680856     -2.680856   1.000000   1.000000
   50       -2.511982     -2.511983   1.000000   1.000000
   51       -2.398915     -2.398914   1.000000   1.000000
   52       -2.161755     -2.161755   1.000000   1.000000
   53       -2.123152     -2.123152   1.000000   1.000000
   54       -1.983598     -1.983598   1.000000   1.000000
   55       -1.876346     -1.876346   1.000000   1.000000
   56       -1.834166     -1.834165   1.000000   1.000000
   57       -1.758337     -1.758338   1.000000   1.000000
   58       -1.693221     -1.693220   1.000000   1.000000
   59       -1.604880     -1.604880   1.000000   1.000000
   60       -1.465349     -1.465349   1.000000   1.000000
   61       -1.421539     -1.421539   1.000000   1.000000
   62       -1.370464     -1.370464   1.000000   1.000000
   63       -1.272860     -1.272860   1.000000   1.000000
   64       -1.143464     -1.143464   1.000000   1.000000
   65       -1.119003     -1.119004   1.000000   1.000000
   66       -0.919498     -0.919497   1.000000   1.000000
   67       -0.593815     -0.593815   1.000000   1.000000
   68       -0.541258     -0.541257   1.000000   1.000000
   69       -0.416748     -0.416747   1.000000   1.000000
   70       -0.325730     -0.325730   1.000000   1.000000
   71       -0.174852     -0.174852   1.000000   1.000000
   72       -0.109849     -0.109849   1.000000   1.000000
   73       -0.007355     -0.007357   1.000000   1.000000
   74        0.144340      0.144339   1.000000   1.000000
   75        0.251524      0.251523   1.000000   1.000000
   76        0.448450      0.448451   1.000000   1.000000
   77        0.628313      0.628314   1.000000   1.000000
   78        0.775604      0.775605   1.000000   1.000000
   79        0.955743      0.955743   1.000000   1.000000
   80        1.043597      1.043597   1.000000   1.000000
   81        1.241441      1.241440   1.000000   1.000000
   82        1.276677      1.276677   1.000000   1.000000
   83        1.499744      1.499744   1.000000   1.000000
   84        1.648786      1.648787   1.000000   1.000000
   85        1.954578      1.954578   1.000000   1.000000
   86        1.978805      1.978805   1.000000   1.000000
   87        2.112573      2.112573   1.000000   1.000000
   88        2.274081      2.274081   1.000000   1.000000
   89        2.349180      2.349181   1.000000   1.000000
   90        2.527726      2.527727   1.000000   1.000000
   91        2.619388      2.619389   1.000000   1.000000
   92        2.749442      2.749443   1.000000   1.000000
   93        2.860891      2.860891   1.000000   1.000000
   94        2.923566      2.923565   1.000000   1.000000
   95        3.024650      3.024650   1.000000   1.000000
   96        3.153608      3.153608   0.999999   0.999999
   97        3.165870      3.165870   0.999998   0.999998
   98        3.206027      3.206027   0.999992   0.999992
   99        3.287761      3.287761   0.999911   0.999911
  100        3.351304      3.351304   0.999582   0.999582
  101        3.367618      3.367618   0.999405   0.999405
  102        3.474936      3.474936   0.996555   0.996555
  103        3.592009      3.592010   0.999259   0.999259
  104        3.687771      3.687771   1.033719   1.033719
  105        3.715208      3.715208   1.045634   1.045634
  106        3.738619      3.738619   1.051326   1.051326
  107        3.793864      3.793863   1.024208   1.024210
  108        3.952104      3.952103   0.417233   0.417235
  109        4.481599      4.481599   0.000953   0.000953
  110        4.555529      4.555529   0.000189   0.000189
  111        4.664900      4.664900   0.000009   0.000009
  112        4.831791      4.831791   0.000000   0.000000
  113        5.145819      5.145821   0.000000   0.000000
  114        5.337520      5.337518   0.000000   0.000000
  115        5.587662      5.587661   0.000000   0.000000
  116        6.009871      6.009871   0.000000   0.000000
  117        6.933016      6.933016   0.000000   0.000000
  118        7.665640      7.665640   0.000000   0.000000
  119        7.832847      7.832848   0.000000   0.000000
  120        7.933883      7.933884   0.000000   0.000000
  121        8.357330      8.357330   0.000000   0.000000
  122        8.534359      8.534359   0.000000   0.000000
  123        8.594791      8.594791   0.000000   0.000000
  124        9.056941      9.056941   0.000000   0.000000
  125        9.185497      9.185497   0.000000   0.000000
  126        9.399151      9.399152   0.000000   0.000000
  127        9.585586      9.585586   0.000000   0.000000
  128        9.687683      9.687681   0.000000   0.000000
  129        9.816938      9.816938   0.000000   0.000000
  130        9.836383      9.836383   0.000000   0.000000
  131       10.052569     10.052569   0.000000   0.000000
  132       10.073867     10.073870   0.000000   0.000000
  133       10.145806     10.145819   0.000000   0.000000
  134       10.241604     10.241616   0.000000   0.000000
  135       10.305372     10.305342   0.000000   0.000000
  136       10.542637     10.540366   0.000000   0.000000
 
  0.3739696E-15  0.2500000E+00  0.1262364E-14  0.6250000E-01
    1      -30.530249    -30.530249   1.000000   1.000000
    2      -30.213624    -30.213623   1.000000   1.000000
    3      -29.962612    -29.962613   1.000000   1.000000
    4      -29.911511    -29.911511   1.000000   1.000000
    5      -16.912378    -16.912378   1.000000   1.000000
    6      -16.728338    -16.728339   1.000000   1.000000
    7      -16.537793    -16.537793   1.000000   1.000000
    8      -16.314789    -16.314789   1.000000   1.000000
    9      -16.206921    -16.206921   1.000000   1.000000
   10      -16.144459    -16.144459   1.000000   1.000000
   11      -16.073692    -16.073692   1.000000   1.000000
   12      -15.912126    -15.912126   1.000000   1.000000
   13      -15.614373    -15.614373   1.000000   1.000000
   14      -15.529898    -15.529898   1.000000   1.000000
   15      -15.461514    -15.461514   1.000000   1.000000
   16      -15.422950    -15.422949   1.000000   1.000000
   17      -15.271496    -15.271495   1.000000   1.000000
   18      -14.239645    -14.239647   1.000000   1.000000
   19      -14.177479    -14.177477   1.000000   1.000000
   20      -13.932731    -13.932732   1.000000   1.000000
   21      -12.705019    -12.705019   1.000000   1.000000
   22      -12.589078    -12.589078   1.000000   1.000000
   23      -12.490390    -12.490389   1.000000   1.000000
   24      -12.357596    -12.357596   1.000000   1.000000
   25      -12.218664    -12.218665   1.000000   1.000000
   26      -12.200622    -12.200622   1.000000   1.000000
   27      -12.136872    -12.136873   1.000000   1.000000
   28      -12.050188    -12.050189   1.000000   1.000000
   29      -12.022156    -12.022157   1.000000   1.000000
   30      -11.805276    -11.805275   1.000000   1.000000
   31      -11.581322    -11.581323   1.000000   1.000000
   32      -11.417160    -11.417160   1.000000   1.000000
   33       -6.115517     -6.115517   1.000000   1.000000
   34       -6.023393     -6.023393   1.000000   1.000000
   35       -5.303724     -5.303724   1.000000   1.000000
   36       -5.206407     -5.206407   1.000000   1.000000
   37       -4.300315     -4.300315   1.000000   1.000000
   38       -4.230921     -4.230921   1.000000   1.000000
   39       -4.164356     -4.164356   1.000000   1.000000
   40       -4.057809     -4.057808   1.000000   1.000000
   41       -3.521259     -3.521259   1.000000   1.000000
   42       -3.401031     -3.401031   1.000000   1.000000
   43       -2.953434     -2.953433   1.000000   1.000000
   44       -2.878194     -2.878194   1.000000   1.000000
   45       -2.831069     -2.831069   1.000000   1.000000
   46       -2.730659     -2.730659   1.000000   1.000000
   47       -2.642499     -2.642499   1.000000   1.000000
   48       -2.605805     -2.605805   1.000000   1.000000
   49       -2.539939     -2.539939   1.000000   1.000000
   50       -2.376960     -2.376960   1.000000   1.000000
   51       -2.294987     -2.294987   1.000000   1.000000
   52       -2.215316     -2.215316   1.000000   1.000000
   53       -2.126450     -2.126449   1.000000   1.000000
   54       -2.089239     -2.089239   1.000000   1.000000
   55       -1.944764     -1.944764   1.000000   1.000000
   56       -1.915891     -1.915890   1.000000   1.000000
   57       -1.690304     -1.690304   1.000000   1.000000
   58       -1.614737     -1.614738   1.000000   1.000000
   59       -1.492833     -1.492833   1.000000   1.000000
   60       -1.331233     -1.331234   1.000000   1.000000
   61       -1.223295     -1.223295   1.000000   1.000000
   62       -1.175482     -1.175483   1.000000   1.000000
   63       -1.016747     -1.016747   1.000000   1.000000
   64       -0.971383     -0.971383   1.000000   1.000000
   65       -0.941901     -0.941901   1.000000   1.000000
   66       -0.736696     -0.736696   1.000000   1.000000
   67       -0.552397     -0.552397   1.000000   1.000000
   68       -0.506319     -0.506319   1.000000   1.000000
   69       -0.390082     -0.390082   1.000000   1.000000
   70       -0.254589     -0.254590   1.000000   1.000000
   71       -0.171704     -0.171704   1.000000   1.000000
   72       -0.028429     -0.028428   1.000000   1.000000
   73       -0.007992     -0.007991   1.000000   1.000000
   74        0.109974      0.109974   1.000000   1.000000
   75        0.226410      0.226411   1.000000   1.000000
   76        0.478660      0.478659   1.000000   1.000000
   77        0.660054      0.660054   1.000000   1.000000
   78        0.744283      0.744283   1.000000   1.000000
   79        0.837997      0.837997   1.000000   1.000000
   80        1.009674      1.009674   1.000000   1.000000
   81        1.188450      1.188451   1.000000   1.000000
   82        1.242847      1.242847   1.000000   1.000000
   83        1.504627      1.504627   1.000000   1.000000
   84        1.733831      1.733830   1.000000   1.000000
   85        1.854536      1.854535   1.000000   1.000000
   86        1.897807      1.897807   1.000000   1.000000
   87        1.953670      1.953671   1.000000   1.000000
   88        2.046067      2.046067   1.000000   1.000000
   89        2.151618      2.151618   1.000000   1.000000
   90        2.218088      2.218088   1.000000   1.000000
   91        2.299618      2.299618   1.000000   1.000000
   92        2.454929      2.454928   1.000000   1.000000
   93        2.731361      2.731361   1.000000   1.000000
   94        2.789686      2.789687   1.000000   1.000000
   95        2.892752      2.892752   1.000000   1.000000
   96        3.062099      3.062099   1.000000   1.000000
   97        3.223687      3.223688   0.999986   0.999986
   98        3.257186      3.257187   0.999961   0.999961
   99        3.394826      3.394826   0.998978   0.998978
  100        3.450248      3.450248   0.997463   0.997463
  101        3.530178      3.530179   0.995068   0.995068