       N       E                     dE             d eps       ncg     rms          rms(c)
DAV:   1     0.181469743546E+04    0.18147E+04   -0.86955E+04 10912   0.120E+03
DAV:   2     0.196303649460E+02   -0.17951E+04   -0.16830E+04 11200   0.374E+02
DAV:   3    -0.210337584122E+03   -0.22997E+03   -0.22082E+03 14728   0.136E+02
DAV:   4    -0.221270701028E+03   -0.10933E+02   -0.10838E+02 14384   0.305E+01
DAV:   5    -0.222010611826E+03   -0.73991E+00   -0.73892E+00 19400   0.588E+00    0.128E+02
RMM:   6    -0.189624644496E+03    0.32386E+02   -0.20812E+02 11112   0.363E+01    0.608E+01
RMM:   7    -0.207600328177E+03   -0.17976E+02   -0.49286E+01 10947   0.171E+01    0.671E+01
RMM:   8    -0.191452063651E+03    0.16148E+02   -0.16499E+01 10887   0.107E+01    0.344E+01
RMM:   9    -0.187398409553E+03    0.40537E+01   -0.19976E+01 10888   0.112E+01    0.222E+01
RMM:  10    -0.184403123693E+03    0.29953E+01   -0.31458E+00 11435   0.407E+00    0.112E+01
RMM:  11    -0.183605648710E+03    0.79747E+00   -0.59046E-01 11624   0.192E+00    0.103E+01
RMM:  12    -0.183388219872E+03    0.21743E+00   -0.21626E-01 12380   0.106E+00    0.705E+00
RMM:  13    -0.183349677703E+03    0.38542E-01   -0.10737E-01 11458   0.828E-01    0.575E+00
RMM:  14    -0.183314199765E+03    0.35478E-01   -0.19911E-01 11034   0.108E+00    0.292E+00
RMM:  15    -0.183343768393E+03   -0.29569E-01   -0.94866E-02 10990   0.792E-01    0.234E+00
RMM:  16    -0.183348608827E+03   -0.48404E-02   -0.52537E-02 11120   0.561E-01    0.159E+00
RMM:  17    -0.183344435814E+03    0.41730E-02   -0.99834E-03 11569   0.248E-01    0.115E+00
RMM:  18    -0.183352048670E+03   -0.76129E-02   -0.86070E-03 11106   0.226E-01    0.847E-01
RMM:  19    -0.183355448231E+03   -0.33996E-02   -0.10426E-02 11159   0.229E-01    0.586E-01
RMM:  20    -0.183355005097E+03    0.44313E-03   -0.17771E-03 11752   0.102E-01    0.276E-01
RMM:  21    -0.183355750963E+03   -0.74587E-03   -0.83321E-04 12308   0.624E-02    0.274E-01
RMM:  22    -0.183356381071E+03   -0.63011E-03   -0.76875E-04 11346   0.654E-02    0.129E-01
RMM:  23    -0.183356620452E+03   -0.23938E-03   -0.28549E-04 11576   0.444E-02    0.914E-02
RMM:  24    -0.183356677775E+03   -0.57323E-04   -0.10230E-04 12119   0.241E-02    0.825E-02
RMM:  25    -0.183356720329E+03   -0.42555E-04   -0.45791E-05 11784   0.164E-02    0.602E-02
RMM:  26    -0.183356746219E+03   -0.25890E-04   -0.32767E-05 11813   0.140E-02    0.307E-02
RMM:  27    -0.183356757520E+03   -0.11301E-04   -0.11884E-05 12170   0.810E-03    0.180E-02
RMM:  28    -0.183356768259E+03   -0.10739E-04   -0.79920E-06 11646   0.664E-03    0.175E-02
RMM:  29    -0.183356770963E+03   -0.27037E-05   -0.34515E-06 11453   0.471E-03    0.951E-03
RMM:  30    -0.183356771452E+03   -0.48860E-06   -0.83481E-07 10323   0.219E-03    0.758E-03
RMM:  31    -0.183356772421E+03   -0.96925E-06   -0.76830E-07 10285   0.215E-03    0.527E-03
RMM:  32    -0.183356772448E+03   -0.27594E-07   -0.25539E-07  7712   0.135E-03
   1 F= -.18335677E+03 E0= -.18336194E+03  d E =-.183357E+03  mag=    -0.0005
       N       E                     dE             d eps       ncg     rms          rms(c)
DAV:   1    -0.183355655686E+03    0.11167E-02   -0.53410E-02 11648   0.584E-01    0.819E-02
RMM:   2    -0.183355796285E+03   -0.14060E-03   -0.13844E-03 10885   0.114E-01    0.100E-01
RMM:   3    -0.183355760158E+03    0.36127E-04   -0.12592E-04 11574   0.350E-02    0.738E-02
RMM:   4    -0.183355738735E+03    0.21423E-04   -0.38815E-05 11497   0.150E-02    0.513E-02
RMM:   5    -0.183355729419E+03    0.93165E-05   -0.11085E-05 11018   0.882E-03    0.253E-02
RMM:   6    -0.183355725811E+03    0.36082E-05   -0.12756E-05 11071   0.790E-03    0.203E-02
RMM:   7    -0.183355725291E+03    0.51983E-06   -0.48761E-06 10880   0.546E-03    0.146E-02
RMM:   8    -0.183355723709E+03    0.15817E-05   -0.13522E-06  9848   0.295E-03    0.417E-03
RMM:   9    -0.183355723695E+03    0.13804E-07   -0.29277E-07  7580   0.150E-03
   2 F= -.18335572E+03 E0= -.18336092E+03  d E =0.104875E-02  mag=    -0.0001
       N       E                     dE             d eps       ncg     rms          rms(c)
DAV:   1    -0.183356708642E+03   -0.98493E-03   -0.45898E-02 11352   0.542E-01    0.753E-02
RMM:   2    -0.183356825687E+03   -0.11704E-03   -0.11437E-03 10882   0.105E-01    0.926E-02
RMM:   3    -0.183356793453E+03    0.32234E-04   -0.10223E-04 11524   0.312E-02    0.677E-02
RMM:   4    -0.183356775646E+03    0.17807E-04   -0.31392E-05 11353   0.137E-02    0.475E-02
RMM:   5    -0.183356767554E+03    0.80916E-05   -0.91643E-06 10903   0.807E-03    0.234E-02
RMM:   6    -0.183356764396E+03    0.31584E-05   -0.11120E-05 11001   0.744E-03    0.190E-02
RMM:   7    -0.183356763615E+03    0.78087E-06   -0.42412E-06 10761   0.506E-03    0.130E-02
RMM:   8    -0.183356762220E+03    0.13946E-05   -0.11610E-06  9750   0.273E-03    0.406E-03
RMM:   9    -0.183356762104E+03    0.11612E-06   -0.24623E-07  7299   0.142E-03    0.339E-03
RMM:  10    -0.183356762007E+03    0.97052E-07   -0.13581E-07  6479   0.130E-03
   3 F= -.18335676E+03 E0= -.18336193E+03  d E =0.104412E-04  mag=    -0.0000
       N       E                     dE             d eps       ncg     rms          rms(c)
DAV:   1    -0.183356768500E+03   -0.63963E-05   -0.64385E-05 11600   0.204E-02    0.309E-03
RMM:   2    -0.183356768700E+03   -0.19901E-06   -0.18717E-06 10325   0.415E-03    0.425E-03
RMM:   3    -0.183356768598E+03    0.10178E-06   -0.14408E-07  6644   0.136E-03    0.263E-03
RMM:   4    -0.183356768570E+03    0.28007E-07   -0.59202E-08  6041   0.889E-04
   4 F= -.18335677E+03 E0= -.18336194E+03  d E =0.387869E-05  mag=    -0.0000
