 vasp.5.4.1 24Jun15 (build Nov 16 2016 17:59:42) complex                        
  
 executed on             LinuxIFC date 2018.02.17  19:12:43
 running on   96 total cores
 distrk:  each k-point on   96 cores,    1 groups
 distr:  one band on NCORES_PER_BAND=  12 cores,    8 groups


--------------------------------------------------------------------------------------------------------


 INCAR:
 POTCAR:    PAW_PBE Sr_sv 07Sep2000               
 POTCAR:    PAW_PBE Ir 06Sep2000                  
 POTCAR:    PAW_PBE O 08Apr2002                   
 POTCAR:    PAW_PBE Sr_sv 07Sep2000               
   VRHFIN =Sr: 4s4p5s                                                           
   LEXCH  = PE                                                                  
   EATOM  =   843.0319 eV,   61.9611 Ry                                         
                                                                                
   TITEL  = PAW_PBE Sr_sv 07Sep2000                                             
   LULTRA =        F    use ultrasoft PP ?                                      
   IUNSCR =        1    unscreen: 0-lin 1-nonlin 2-no                           
   RPACOR =    2.200    partial core radius                                     
   POMASS =   87.620; ZVAL   =   10.000    mass and valenz                      
   RCORE  =    2.500    outmost cutoff radius                                   
   RWIGS  =    4.040; RWIGS  =    2.138    wigner-seitz radius (au A)           
   ENMAX  =  229.353; ENMIN  =  172.014 eV                                      
   RCLOC  =    2.201    cutoff for local pot                                    
   LCOR   =        T    correct aug charges                                     
   LPAW   =        T    paw PP                                                  
   EAUG   =  366.804                                                            
   DEXC   =    0.000                                                            
   RMAX   =    2.547    core radius for proj-oper                               
   RAUG   =    1.300    factor for augmentation sphere                          
   RDEP   =    2.562    radius for radial grids                                 
   RDEPT  =    2.128    core radius for aug-charge                              
                                                                                
   Atomic configuration                                                         
   10 entries                                                                   
     n  l   j            E        occ.                                          
     1  0  0.50    -15934.8930   2.0000                                         
     2  0  0.50     -2157.6250   2.0000                                         
     2  1  1.50     -1917.0034   6.0000                                         
     3  0  0.50      -333.7288   2.0000                                         
     3  1  1.50      -256.0992   6.0000                                         
     3  2  2.50      -127.9971  10.0000                                         
     4  0  0.50       -40.8953   2.0000                                         
     5  0  0.50        -3.5257   1.9990                                         
     4  1  1.50       -22.8179   6.0000                                         
     4  2  1.50        -1.2815   0.0010                                         
   Description                                                                  
     l       E           TYP  RCUT    TYP  RCUT                                 
     0    -40.8953213     23  2.480                                             
     0     -3.5257161     23  2.480                                             
     1    -22.8178632     23  2.500                                             
     1    -24.1784458     23  2.500                                             
     2     -1.2814598     23  2.500                                             
     2      0.2279365     23  2.500                                             
  local pseudopotential read in
  partial core-charges read in
  partial kinetic energy density read in
  atomic valenz-charges read in
  non local Contribution for L=           0  read in
    real space projection operators read in
  non local Contribution for L=           0  read in
    real space projection operators read in
  non local Contribution for L=           1  read in
    real space projection operators read in
  non local Contribution for L=           1  read in
    real space projection operators read in
  non local Contribution for L=           2  read in
    real space projection operators read in
  non local Contribution for L=           2  read in
    real space projection operators read in
    PAW grid and wavefunctions read in
 
   number of l-projection  operators is LMAX  =           6
   number of lm-projection operators is LMMAX =          18
 
 POTCAR:    PAW_PBE Ir 06Sep2000                  
   VRHFIN =Ir: s1d8                                                             
   LEXCH  = PE                                                                  
   EATOM  =   560.1833 eV,   41.1723 Ry                                         
                                                                                
   TITEL  = PAW_PBE Ir 06Sep2000                                                
   LULTRA =        F    use ultrasoft PP ?                                      
   IUNSCR =        1    unscreen: 0-lin 1-nonlin 2-no                           
   RPACOR =    2.250    partial core radius                                     
   POMASS =  192.220; ZVAL   =    9.000    mass and valenz                      
   RCORE  =    2.600    outmost cutoff radius                                   
   RWIGS  =    2.690; RWIGS  =    1.423    wigner-seitz radius (au A)           
   ENMAX  =  210.864; ENMIN  =  158.148 eV                                      
   RCLOC  =    1.857    cutoff for local pot                                    
   LCOR   =        T    correct aug charges                                     
   LPAW   =        T    paw PP                                                  
   EAUG   =  318.962                                                            
   DEXC   =    0.000                                                            
   RMAX   =    2.667    core radius for proj-oper                               
   RAUG   =    1.300    factor for augmentation sphere                          
   RDEP   =    2.748    radius for radial grids                                 
   RDEPT  =    2.300    core radius for aug-charge                              
                                                                                
   Atomic configuration                                                         
   16 entries                                                                   
     n  l   j            E        occ.                                          
     1  0  0.50    -76100.0449   2.0000                                         
     2  0  0.50    -13308.1683   2.0000                                         
     2  1  1.50    -11558.0021   6.0000                                         
     3  0  0.50     -3110.7274   2.0000                                         
     3  1  1.50     -2599.2109   6.0000                                         
     3  2  2.50     -2037.1515  10.0000                                         
     4  0  0.50      -661.6001   2.0000                                         
     4  1  1.50      -493.8981   6.0000                                         
     4  2  2.50      -288.1909  10.0000                                         
     4  3  3.50       -59.5718  14.0000                                         
     5  0  0.50       -95.3879   2.0000                                         
     5  1  1.50       -52.2747   6.0000                                         
     5  2  2.50        -5.4180   8.0000                                         
     6  0  0.50        -5.5479   1.0000                                         
     6  1  1.50        -6.8029   0.0000                                         
     5  3  2.50        -1.3606   0.0000                                         
   Description                                                                  
     l       E           TYP  RCUT    TYP  RCUT                                 
     2     -5.4179967     23  2.600                                             
     2     -6.7785793     23  2.600                                             
     0     -5.5478636     23  2.600                                             
     0      2.2542272     23  2.600                                             
     1     -2.7211652     23  2.600                                             
     1     20.4087390     23  2.600                                             
  local pseudopotential read in
  partial core-charges read in
  partial kinetic energy density read in
  atomic valenz-charges read in
  non local Contribution for L=           2  read in
    real space projection operators read in
  non local Contribution for L=           2  read in
    real space projection operators read in
  non local Contribution for L=           0  read in
    real space projection operators read in
  non local Contribution for L=           0  read in
    real space projection operators read in
  non local Contribution for L=           1  read in
    real space projection operators read in
  non local Contribution for L=           1  read in
    real space projection operators read in
    PAW grid and wavefunctions read in
 
   number of l-projection  operators is LMAX  =           6
   number of lm-projection operators is LMMAX =          18
 
 POTCAR:    PAW_PBE O 08Apr2002                   
   VRHFIN =O: s2p4                                                              
   LEXCH  = PE                                                                  
   EATOM  =   432.3788 eV,   31.7789 Ry                                         
                                                                                
   TITEL  = PAW_PBE O 08Apr2002                                                 
   LULTRA =        F    use ultrasoft PP ?                                      
   IUNSCR =        1    unscreen: 0-lin 1-nonlin 2-no                           
   RPACOR =    1.200    partial core radius                                     
   POMASS =   16.000; ZVAL   =    6.000    mass and valenz                      
   RCORE  =    1.520    outmost cutoff radius                                   
   RWIGS  =    1.550; RWIGS  =    0.820    wigner-seitz radius (au A)           
   ENMAX  =  400.000; ENMIN  =  300.000 eV                                      
   ICORE  =        2    local potential                                         
   LCOR   =        T    correct aug charges                                     
   LPAW   =        T    paw PP                                                  
   EAUG   =  605.392                                                            
   DEXC   =    0.000                                                            
   RMAX   =    1.553    core radius for proj-oper                               
   RAUG   =    1.300    factor for augmentation sphere                          
   RDEP   =    1.550    radius for radial grids                                 
   RDEPT  =    1.329    core radius for aug-charge                              
                                                                                
   Atomic configuration                                                         
    4 entries                                                                   
     n  l   j            E        occ.                                          
     1  0  0.50      -514.6923   2.0000                                         
     2  0  0.50       -23.9615   2.0000                                         
     2  1  0.50        -9.0305   4.0000                                         
     3  2  1.50        -9.5241   0.0000                                         
   Description                                                                  
     l       E           TYP  RCUT    TYP  RCUT                                 
     0    -23.9615318     23  1.200                                             
     0     -9.5240782     23  1.200                                             
     1     -9.0304911     23  1.520                                             
     1      8.1634956     23  1.520                                             
     2     -9.5240782      7  1.500                                             
  local pseudopotential read in
  partial core-charges read in
  partial kinetic energy density read in
  kinetic energy density of atom read in
  atomic valenz-charges read in
  non local Contribution for L=           0  read in
    real space projection operators read in
  non local Contribution for L=           0  read in
    real space projection operators read in
  non local Contribution for L=           1  read in
    real space projection operators read in
  non local Contribution for L=           1  read in
    real space projection operators read in
    PAW grid and wavefunctions read in
 
   number of l-projection  operators is LMAX  =           4
   number of lm-projection operators is LMMAX =           8
 
 Optimization of the real space projectors (old method)

 maximal supplied QI-value         = 15.12
 optimisation between [QCUT,QGAM] = [ 10.13, 20.41] = [ 28.73,116.64] Ry 
 Optimized for a Real-space Cutoff    1.22 Angstroem

   l      QCUT      X(QCUT)   X(cont)   X(QGAM) max X(q)   W(low)/max W(high)/max e(spline) 
   0     10.129     0.137     0.149    -0.000    11.565    0.41E-02    0.66E-04    0.86E-03
   0     10.129     0.234     0.255    -0.001    10.214    0.88E-02    0.14E-03    0.18E-02
   1     10.129   -35.656   -31.339     1.525   189.983    0.55E-01    0.14E-01    0.58E-02
   1     10.129    36.314    31.921    -1.550   193.105    0.55E-01    0.14E-01    0.58E-02
   2     10.129    25.762    15.294     3.373   115.941    0.14E+00    0.44E-01    0.20E-01
   2     10.129   -16.623    -9.911    -2.164    76.444    0.14E+00    0.43E-01    0.19E-01
 Optimization of the real space projectors (old method)

 maximal supplied QI-value         = 14.36
 optimisation between [QCUT,QGAM] = [ 10.20, 20.39] = [ 29.12,116.47] Ry 
 Optimized for a Real-space Cutoff    1.22 Angstroem

   l      QCUT      X(QCUT)   X(cont)   X(QGAM) max X(q)   W(low)/max W(high)/max e(spline) 
   2     10.197   -31.373   -33.076     1.726   134.116    0.62E-01    0.20E-01    0.53E-02
   2     10.197    30.480    32.077    -1.658   130.192    0.61E-01    0.20E-01    0.52E-02
   0     10.197    -1.649     0.679    -0.654    60.310    0.21E+00    0.16E-01    0.27E-01
   0     10.197     1.018    -0.387     0.396    39.218    0.20E+00    0.15E-01    0.25E-01
   1     10.197     0.040     0.564     0.219    18.439    0.73E-01    0.20E-01    0.90E-02
   1     10.197     0.003    -0.275    -0.113    12.760    0.56E-01    0.15E-01    0.67E-02
 Optimization of the real space projectors (old method)

 maximal supplied QI-value         = 24.76
 optimisation between [QCUT,QGAM] = [ 10.15, 20.30] = [ 28.85,115.39] Ry 
 Optimized for a Real-space Cutoff    1.22 Angstroem

   l      QCUT      X(QCUT)   X(cont)   X(QGAM) max X(q)   W(low)/max W(high)/max e(spline) 
   0     10.150   -14.341   -14.305     0.008    20.381    0.29E-02    0.85E-03    0.29E-03
   0     10.150   -11.316   -11.286     0.006    15.268    0.31E-02    0.92E-03    0.31E-03
   1     10.150    -5.333    -5.321     0.004     5.964    0.26E-03    0.14E-02    0.28E-03
   1     10.150    -4.574    -4.561     0.003     5.382    0.21E-03    0.12E-02    0.23E-03
  PAW_PBE Sr_sv 07Sep2000               :
 energy of atom  1       EATOM= -843.0319
 kinetic energy error for atom=    0.0032 (will be added to EATOM!!)
  PAW_PBE Ir 06Sep2000                  :
 energy of atom  2       EATOM= -560.1833
 kinetic energy error for atom=    0.0041 (will be added to EATOM!!)
  PAW_PBE O 08Apr2002                   :
 energy of atom  3       EATOM= -432.3788
 kinetic energy error for atom=    0.1156 (will be added to EATOM!!)
 
 
 POSCAR: Sr Ir2 O5                               
  positions in direct lattice
  velocities in cartesian coordinates
 exchange correlation table for  LEXCH =        8
   RHO(1)=    0.500       N(1)  =     2000
   RHO(2)=  100.500       N(2)  =     4000
 


--------------------------------------------------------------------------------------------------------


 ion  position               nearest neighbor table
   1  0.462  0.054  0.116-  14 2.45  22 2.46  17 2.62  20 2.66  15 2.68  17 2.73  19 2.75  15 2.83
                             5 3.15   5 3.18   6 3.21   8 3.22   7 3.30   6 3.32   8 3.34   7 3.50
   2  0.120  0.472  0.376-  21 2.42  13 2.44  19 2.55  16 2.70  18 2.70  16 2.74  18 2.75  20 2.88
                             7 3.16   8 3.18   9 3.23   7 3.27   9 3.28  10 3.32   8 3.46  10 3.48
   3  0.440  0.952  0.616-  21 2.46  23 2.59  25 2.64  27 2.70  28 2.71  23 2.80  25 2.86  10 3.14
                            10 3.22  11 3.27  12 3.28  13 3.29   9 3.33  11 3.34   9 3.36  12 3.54
   4  0.096  0.536  0.884-  22 2.38  14 2.46  24 2.68  28 2.71  26 2.72  24 2.72  26 2.74  27 2.92
                             6 3.14   5 3.20   6 3.20  12 3.21  11 3.27  12 3.33   5 3.36  11 3.49
   5  0.949  0.015  0.005-  15 1.83  24 1.86  22 1.92  14 2.61   6 3.07   1 3.15   1 3.18   4 3.20
                             6 3.31   4 3.36
   6  0.606  0.542  0.997-  26 1.83  17 1.86  14 1.90   5 3.07   4 3.14   4 3.20   1 3.21   5 3.31
                             1 3.32
   7  0.005  0.985  0.253-  15 1.86  20 1.87  18 1.88  19 1.93   2 3.16   2 3.27   1 3.30   8 3.30
                             1 3.50
   8  0.570  0.539  0.248-  20 1.87  16 1.88  17 1.88  19 1.93   2 3.18   1 3.22   7 3.30   1 3.34
                             2 3.46
   9  0.643  0.457  0.499-  16 1.87  23 1.90  21 1.91  13 2.00  10 2.88  10 3.18   2 3.23   2 3.28
                             3 3.33   3 3.36
  10  0.931  0.991  0.503-  25 1.85  18 1.86  13 1.94   9 2.88   3 3.14   9 3.18   3 3.22   2 3.32
                             2 3.48
  11  0.551  0.461  0.750-  26 1.86  27 1.88  23 1.90  28 1.90   3 3.27   4 3.27  12 3.30   3 3.34
                             4 3.49
  12  0.991  0.022  0.754-  25 1.88  24 1.88  27 1.89  28 1.90   4 3.21   3 3.28  11 3.30   4 3.33
                             3 3.54
  13  0.975  0.624  0.520-  10 1.94   9 2.00   2 2.44   3 3.29
  14  0.379  0.816  0.975-   6 1.90   1 2.45   4 2.46   5 2.61
  15  0.978  0.958  0.128-   5 1.83   7 1.86   1 2.68   1 2.83
  16  0.624  0.529  0.374-   9 1.87   8 1.88   2 2.70   2 2.74
  17  0.578  0.565  0.121-   6 1.86   8 1.88   1 2.62   1 2.73
  18  0.969  0.976  0.379-  10 1.86   7 1.88   2 2.70   2 2.75
  19  0.296  0.772  0.259-   7 1.93   8 1.93   2 2.55   1 2.75
  20  0.781  0.258  0.239-   8 1.87   7 1.87   1 2.66   2 2.88
  21  0.382  0.212  0.477-   9 1.91   2 2.42   3 2.46
  22  0.161  0.309  0.023-   5 1.92   4 2.38   1 2.46
  23  0.572  0.432  0.623-  11 1.90   9 1.90   3 2.59   3 2.80
  24  0.961  0.032  0.880-   5 1.86  12 1.88   4 2.68   4 2.72
  25  0.962  0.039  0.627-  10 1.85  12 1.88   3 2.64   3 2.86
  26  0.592  0.469  0.876-   6 1.83  11 1.86   4 2.72   4 2.74
  27  0.758  0.751  0.744-  11 1.88  12 1.89   3 2.70   4 2.92
  28  0.278  0.232  0.755-  12 1.90  11 1.90   4 2.71   3 2.71
 

IMPORTANT INFORMATION: All symmetrisations will be switched off!
NOSYMM: (Re-)initialisation of all symmetry stuff for point group C_1.

 
 
 KPOINTS: janK                                    

Automatic generation of k-mesh.
Space group operators:
 irot       det(A)        alpha          n_x          n_y          n_z        tau_x        tau_y        tau_z
    1     1.000000     0.000000     1.000000     0.000000     0.000000     0.000000     0.000000     0.000000
 
 Subroutine IBZKPT returns following result:
 ===========================================
 
 Found     20 irreducible k-points:
 
 Following reciprocal coordinates:
            Coordinates               Weight
  0.000000  0.000000  0.000000      1.000000
  0.250000  0.000000  0.000000      2.000000
  0.500000  0.000000  0.000000      1.000000
  0.000000  0.250000  0.000000      2.000000
  0.250000  0.250000  0.000000      2.000000
  0.500000  0.250000  0.000000      2.000000
 -0.250000  0.250000  0.000000      2.000000
  0.000000  0.500000  0.000000      1.000000
  0.250000  0.500000  0.000000      2.000000
  0.500000  0.500000  0.000000      1.000000
  0.000000  0.000000  0.500000      1.000000
  0.250000  0.000000  0.500000      2.000000
  0.500000  0.000000  0.500000      1.000000
  0.000000  0.250000  0.500000      2.000000
  0.250000  0.250000  0.500000      2.000000
  0.500000  0.250000  0.500000      2.000000
 -0.250000  0.250000  0.500000      2.000000
  0.000000  0.500000  0.500000      1.000000
  0.250000  0.500000  0.500000      2.000000
  0.500000  0.500000  0.500000      1.000000
 
 Following cartesian coordinates:
            Coordinates               Weight
  0.000000  0.000000  0.000000      1.000000
  0.046286  0.000102  0.001242      2.000000
  0.092572  0.000205  0.002484      1.000000
  0.000071  0.048082 -0.000006      2.000000
  0.046357  0.048184  0.001236      2.000000
  0.092643  0.048286  0.002478      2.000000
 -0.046215  0.047979 -0.001248      2.000000
  0.000143  0.096163 -0.000012      1.000000
  0.046429  0.096266  0.001230      2.000000
  0.092715  0.096368  0.002472      1.000000
  0.000897 -0.000054  0.033816      1.000000
  0.047183  0.000048  0.035059      2.000000
  0.093469  0.000150  0.036301      1.000000
  0.000968  0.048027  0.033810      2.000000
  0.047254  0.048130  0.035052      2.000000
  0.093540  0.048232  0.036295      2.000000
 -0.045318  0.047925  0.032568      2.000000
  0.001039  0.096109  0.033804      1.000000
  0.047325  0.096211  0.035046      2.000000
  0.093611  0.096314  0.036288      1.000000
 


--------------------------------------------------------------------------------------------------------




 Dimension of arrays:
   k-points           NKPTS =     20   k-points in BZ     NKDIM =     20   number of bands    NBANDS=    136
   number of dos      NEDOS =    301   number of ions     NIONS =     28
   non local maximal  LDIM  =      6   non local SUM 2l+1 LMDIM =     18
   total plane-waves  NPLWV = 127008
   max r-space proj   IRMAX =   2374   max aug-charges    IRDMAX=  22299
   dimension x,y,z NGX =    36 NGY =   36 NGZ =   98
   dimension x,y,z NGXF=    72 NGYF=   72 NGZF=  196
   support grid    NGXF=    72 NGYF=   72 NGZF=  196
   ions per type =               4   8  16
 NGX,Y,Z   is equivalent  to a cutoff of  11.07, 11.51, 11.01 a.u.
 NGXF,Y,Z  is equivalent  to a cutoff of  22.14, 23.02, 22.01 a.u.


 I would recommend the setting:
   dimension x,y,z NGX =    35 NGY =   34 NGZ =   97
 SYSTEM =  SrIr2O4 prototype                       
 POSCAR =  Sr Ir2 O5                               

 Startparameter for this run:
   NWRITE =      2    write-flag & timer
   PREC   = accura    normal or accurate (medium, high low for compatibility)
   ISTART =      0    job   : 0-new  1-cont  2-samecut
   ICHARG =      2    charge: 1-file 2-atom 10-const
   ISPIN  =      2    spin polarized calculation?
   LNONCOLLINEAR =      F non collinear calculations
   LSORBIT =      F    spin-orbit coupling
   INIWAV =      1    electr: 0-lowe 1-rand  2-diag
   LASPH  =      F    aspherical Exc in radial PAW
   METAGGA=      F    non-selfconsistent MetaGGA calc.

 Electronic Relaxation 1
   ENCUT  =  400.0 eV  29.40 Ry    5.42 a.u.   8.82  8.48 24.14*2*pi/ulx,y,z
   ENINI  =  400.0     initial cutoff
   ENAUG  =  605.4 eV  augmentation charge cutoff
   NELM   =     60;   NELMIN=  2; NELMDL= -5     # of ELM steps 
   EDIFF  = 0.1E-06   stopping-criterion for ELM
   LREAL  =      T    real-space projection
   NLSPLINE    = F    spline interpolate recip. space projectors
   LCOMPAT=      F    compatible to vasp.4.4
   GGA_COMPAT  = T    GGA compatible to vasp.4.4-vasp.4.6
   LMAXPAW     = -100 max onsite density
   LMAXMIX     =    2 max onsite mixed and CHGCAR
   VOSKOWN=      0    Vosko Wilk Nusair interpolation
   ROPT   =    1.00000   1.00000   1.00000
 Ionic relaxation
   EDIFFG = 0.1E-04   stopping-criterion for IOM
   NSW    =    901    number of steps for IOM
   NBLOCK =      1;   KBLOCK =    901    inner block; outer block 
   IBRION =      2    ionic relax: 0-MD 1-quasi-New 2-CG
   NFREE  =      1    steps in history (QN), initial steepest desc. (CG)
   ISIF   =      3    stress and relaxation
   IWAVPR =     11    prediction:  0-non 1-charg 2-wave 3-comb
   ISYM   =      0    0-nonsym 1-usesym 2-fastsym
   LCORR  =      T    Harris-Foulkes like correction to forces

   POTIM  = 0.5000    time-step for ionic-motion
   TEIN   =    0.0    initial temperature
   TEBEG  =    0.0;   TEEND  =   0.0 temperature during run
   SMASS  =  -3.00    Nose mass-parameter (am)
   estimated Nose-frequenzy (Omega)   =  0.10E-29 period in steps =****** mass=  -0.668E-27a.u.
   SCALEE = 1.0000    scale energy and forces
   NPACO  =    256;   APACO  = 16.0  distance and # of slots for P.C.
   PSTRESS=    0.0 pullay stress

  Mass of Ions in am
   POMASS =  87.62192.22 16.00
  Ionic Valenz
   ZVAL   =  10.00  9.00  6.00
  Atomic Wigner-Seitz radii
   RWIGS  =  -1.00 -1.00 -1.00
  virtual crystal weights 
   VCA    =   1.00  1.00  1.00
   NELECT =     208.0000    total number of electrons
   NUPDOWN=      -1.0000    fix difference up-down

 DOS related values:
   EMIN   =  10.00;   EMAX   =-10.00  energy-range for DOS
   EFERMI =   0.00
   ISMEAR =     2;   SIGMA  =   0.20  broadening in eV -4-tet -1-fermi 0-gaus

 Electronic relaxation 2 (details)
   IALGO  =     68    algorithm
   LDIAG  =      T    sub-space diagonalisation (order eigenvalues)
   LSUBROT=      F    optimize rotation matrix (better conditioning)
   TURBO    =      0    0=normal 1=particle mesh
   IRESTART =      0    0=no restart 2=restart with 2 vectors
   NREBOOT  =      0    no. of reboots
   NMIN     =      0    reboot dimension
   EREF     =   0.00    reference energy to select bands
   IMIX   =      4    mixing-type and parameters
     AMIX     =   0.40;   BMIX     =  1.00
     AMIX_MAG =   1.60;   BMIX_MAG =  1.00
     AMIN     =   0.01
     WC   =   100.;   INIMIX=   1;  MIXPRE=   1;  MAXMIX= -45

 Intra band minimization:
   WEIMIN = 0.0010     energy-eigenvalue tresh-hold
   EBREAK =  0.18E-09  absolut break condition
   DEPER  =   0.30     relativ break condition  

   TIME   =   0.40     timestep for ELM

  volume/ion in A,a.u.               =      14.84       100.15
  Fermi-wavevector in a.u.,A,eV,Ry     =   1.299853  2.456365 22.988632  1.689617
  Thomas-Fermi vector in A             =   2.431090
 
 Write flags
   LWAVE  =      F    write WAVECAR
   LCHARG =      F    write CHGCAR
   LVTOT  =      F    write LOCPOT, total local potential
   LVHAR  =      F    write LOCPOT, Hartree potential only
   LELF   =      F    write electronic localiz. function (ELF)
   LORBIT =     11    0 simple, 1 ext, 2 COOP (PROOUT)


 Dipole corrections
   LMONO  =      F    monopole corrections only (constant potential shift)
   LDIPOL =      F    correct potential (dipole corrections)
   IDIPOL =      0    1-x, 2-y, 3-z, 4-all directions 
   EPSILON=  1.0000000 bulk dielectric constant

 Exchange correlation treatment:
   GGA     =    --    GGA type
   LEXCH   =     8    internal setting for exchange type
   VOSKOWN=      0    Vosko Wilk Nusair interpolation
   LHFCALC =     F    Hartree Fock is set to
   LHFONE  =     F    Hartree Fock one center treatment
   AEXX    =    0.0000 exact exchange contribution

 Linear response parameters
   LEPSILON=     F    determine dielectric tensor
   LRPA    =     F    only Hartree local field effects (RPA)
   LNABLA  =     F    use nabla operator in PAW spheres
   LVEL    =     F    velocity operator in full k-point grid
   LINTERFAST=   F  fast interpolation
   KINTER  =     0    interpolate to denser k-point grid
   CSHIFT  =0.1000    complex shift for real part using Kramers Kronig
   OMEGAMAX=  -1.0    maximum frequency
   DEG_THRESHOLD= 0.2000000E-02 threshold for treating states as degnerate
   RTIME   =    0.100 relaxation time in fs

 Orbital magnetization related:
   ORBITALMAG=     F  switch on orbital magnetization
   LCHIMAG   =     F  perturbation theory with respect to B field
   DQ        =  0.001000  dq finite difference perturbation B field



--------------------------------------------------------------------------------------------------------


 conjugate gradient relaxation of ions
 charge density and potential will be updated during run
 spin polarized calculation
 RMM-DIIS sequential band-by-band and
  variant of blocked Davidson during initial phase
 perform sub-space diagonalisation
    before iterative eigenvector-optimisation
 modified Broyden-mixing scheme, WC =      100.0
 initial mixing is a Kerker type mixing with AMIX =  0.4000 and BMIX =      1.0000
 Hartree-type preconditioning will be used
 using additional bands           32
 real space projection scheme for non local part
 use partial core corrections
 calculate Harris-corrections to forces 
   (improved forces if not selfconsistent)
 use gradient corrections 
 use of overlap-Matrix (Vanderbilt PP)
 Methfessel and Paxton  Order N= 2 SIGMA  =   0.20


--------------------------------------------------------------------------------------------------------


  energy-cutoff  :      400.00
  volume of cell :      415.53
      direct lattice vectors                 reciprocal lattice vectors
     5.405064310 -0.008030939 -0.143357057     0.185144064  0.000409425  0.004968597
    -0.011730825  5.199514984  0.008670810     0.000285116  0.192326315 -0.000024362
    -0.397084145  0.002462901 14.796281017     0.001793642 -0.000108739  0.067632704

  length of vectors
     5.406971051  5.199535446 14.801608488     0.185211174  0.192326528  0.067656571


 
 k-points in units of 2pi/SCALE and weight: janK                                    
   0.00000000  0.00000000  0.00000000       0.031
   0.04628602  0.00010236  0.00124215       0.062
   0.09257203  0.00020471  0.00248430       0.031
   0.00007128  0.04808158 -0.00000609       0.062
   0.04635729  0.04818393  0.00123606       0.062
   0.09264331  0.04828629  0.00247821       0.062
  -0.04621474  0.04797922 -0.00124824       0.062
   0.00014256  0.09616316 -0.00001218       0.031
   0.04642857  0.09626551  0.00122997       0.062
   0.09271459  0.09636787  0.00247212       0.031
   0.00089682 -0.00005437  0.03381635       0.031
   0.04718284  0.00004799  0.03505850       0.062
   0.09346885  0.00015034  0.03630065       0.031
   0.00096810  0.04802721  0.03381026       0.062
   0.04725412  0.04812957  0.03505241       0.062
   0.09354013  0.04823192  0.03629456       0.062
  -0.04531792  0.04792485  0.03256811       0.062
   0.00103938  0.09610879  0.03380417       0.031
   0.04732539  0.09621114  0.03504632       0.062
   0.09361141  0.09631350  0.03628847       0.031
 
 k-points in reciprocal lattice and weights: janK                                    
   0.00000000  0.00000000  0.00000000       0.031
   0.25000000  0.00000000  0.00000000       0.062
   0.50000000  0.00000000  0.00000000       0.031
   0.00000000  0.25000000  0.00000000       0.062
   0.25000000  0.25000000  0.00000000       0.062
   0.50000000  0.25000000  0.00000000       0.062
  -0.25000000  0.25000000  0.00000000       0.062
   0.00000000  0.50000000  0.00000000       0.031
   0.25000000  0.50000000  0.00000000       0.062
   0.50000000  0.50000000  0.00000000       0.031
   0.00000000  0.00000000  0.50000000       0.031
   0.25000000  0.00000000  0.50000000       0.062
   0.50000000  0.00000000  0.50000000       0.031
   0.00000000  0.25000000  0.50000000       0.062
   0.25000000  0.25000000  0.50000000       0.062
   0.50000000  0.25000000  0.50000000       0.062
  -0.25000000  0.25000000  0.50000000       0.062
   0.00000000  0.50000000  0.50000000       0.031
   0.25000000  0.50000000  0.50000000       0.062
   0.50000000  0.50000000  0.50000000       0.031
 
 position of ions in fractional coordinates (direct lattice) 
   0.46166471  0.05398142  0.11604967
   0.11965746  0.47226837  0.37576906
   0.43956066  0.95241905  0.61576092
   0.09613533  0.53590174  0.88432365
   0.94883498  0.01485184  0.00513300
   0.60629817  0.54221812  0.99677062
   0.00523562  0.98531587  0.25326137
   0.56984751  0.53911404  0.24770538
   0.64301397  0.45733773  0.49850540
   0.93109254  0.99137483  0.50320770
   0.55140217  0.46107283  0.74982708
   0.99053650  0.02162308  0.75429353
   0.97464731  0.62359721  0.51985289
   0.37918578  0.81622270  0.97473371
   0.97783429  0.95789167  0.12751131
   0.62406461  0.52871815  0.37416555
   0.57765734  0.56491305  0.12104387
   0.96921081  0.97608482  0.37895014
   0.29634718  0.77182801  0.25863587
   0.78088174  0.25789655  0.23944021
   0.38175113  0.21191478  0.47698162
   0.16115102  0.30913236  0.02334711
   0.57181637  0.43156651  0.62270906
   0.96089741  0.03175429  0.88021648
   0.96224776  0.03917822  0.62732751
   0.59211920  0.46900094  0.87568983
   0.75812912  0.75073013  0.74366294
   0.27806733  0.23209167  0.75512450
 
 position of ions in cartesian coordinates  (Angst):
   2.44861271  0.27725544  1.65138876
   0.49200421  2.45553096  5.54692577
   2.12017205  4.95010359  9.05621570
   0.16218016  2.78783508 13.07556623
   5.12630163  0.06961500 -0.05994404
   2.87491811  2.81685705 14.66628249
  -0.08382579  5.12374636  3.75511940
   2.97537828  2.79916522  3.58810131
   3.27221834  2.37399816  7.28781092
   4.82116961  5.14843010  7.32071981
   2.67721097  2.39477358 11.01960268
   5.05414181  0.10633233 11.01892619
   5.05429073  3.23585604  7.55757395
   1.65289726  4.24331763 14.37515220
   5.22338765  4.97303321  1.75481950
   3.21833185  2.74498766  5.45137890
   3.06758357  2.93293284  1.71308615
   5.07672140  5.06831729  5.47657306
   1.49002118  4.01138834  3.79105793
   4.12261277  1.33525548  3.43311593
   1.87150162  1.09996303  7.00466489
   0.85813451  1.60610165  0.32502866
   2.83837374  2.24087796  9.13554641
   4.84381976  0.15955789 12.88645431
   4.95144964  0.19752505  9.14450888
   2.84721802  2.43597888 12.87613495
   3.79363319  3.89917562 10.90127212
   1.20040123  1.20639075 11.13518386
 


--------------------------------------------------------------------------------------------------------


 k-point  1 :   0.0000 0.0000 0.0000  plane waves:    7563
 k-point  2 :   0.2500 0.0000 0.0000  plane waves:    7551
 k-point  3 :   0.5000 0.0000 0.0000  plane waves:    7584
 k-point  4 :   0.0000 0.2500 0.0000  plane waves:    7541
 k-point  5 :   0.2500 0.2500 0.0000  plane waves:    7555
 k-point  6 :   0.5000 0.2500 0.0000  plane waves:    7560
 k-point  7 :  -0.2500 0.2500 0.0000  plane waves:    7550
 k-point  8 :   0.0000 0.5000 0.0000  plane waves:    7528
 k-point  9 :   0.2500 0.5000 0.0000  plane waves:    7513
 k-point 10 :   0.5000 0.5000 0.0000  plane waves:    7528
 k-point 11 :   0.0000 0.0000 0.5000  plane waves:    7544
 k-point 12 :   0.2500 0.0000 0.5000  plane waves:    7548
 k-point 13 :   0.5000 0.0000 0.5000  plane waves:    7582
 k-point 14 :   0.0000 0.2500 0.5000  plane waves:    7553
 k-point 15 :   0.2500 0.2500 0.5000  plane waves:    7560
 k-point 16 :   0.5000 0.2500 0.5000  plane waves:    7554
 k-point 17 :  -0.2500 0.2500 0.5000  plane waves:    7552
 k-point 18 :   0.0000 0.5000 0.5000  plane waves:    7522
 k-point 19 :   0.2500 0.5000 0.5000  plane waves:    7528
 k-point 20 :   0.5000 0.5000 0.5000  plane waves:    7538

 maximum and minimum number of plane-waves per node :       655      604

 maximum number of plane-waves:      7584
 maximum index in each direction: 
   IXMAX=    9   IYMAX=    8   IZMAX=   24
   IXMIN=   -9   IYMIN=   -8   IZMIN=  -24

 WARNING: aliasing errors must be expected set NGX to  38 to avoid them
 NGY is ok and might be reduce to  34
 NGZ is ok and might be reduce to  98
 aliasing errors are usually negligible using standard VASP settings
 and one can safely disregard these warnings

 real space projection operators:
  total allocation   :       6076.64 KBytes
  max/ min on nodes  :        531.41        488.48


 parallel 3D FFT for wavefunctions:
    minimum data exchange during FFTs selected (reduces bandwidth)
 parallel 3D FFT for charge:
    minimum data exchange during FFTs selected (reduces bandwidth)


 total amount of memory used by VASP on root node    42218. kBytes
========================================================================

   base      :      30000. kBytes
   nonlr-proj:       1743. kBytes
   fftplans  :        795. kBytes
   grid      :       2102. kBytes
   one-center:         93. kBytes
   wavefun   :       7485. kBytes
 
     INWAV:  cpu time    0.0010: real time    0.0001
 Broyden mixing: mesh for mixing (old mesh)
   NGX = 17   NGY = 17   NGZ = 49
  (NGX  = 72   NGY  = 72   NGZ  =196)
  gives a total of  14161 points

 initial charge density was supplied:
 charge density of overlapping atoms calculated
 number of electron     208.0000000 magnetization      11.2000000
 keeping initial charge density in first step


--------------------------------------------------------------------------------------------------------


 Maximum index for non-local projection operator          209
 Maximum index for augmentation-charges          941 (set IRDMAX)


--------------------------------------------------------------------------------------------------------


 First call to EWALD:  gamma=   0.238
 Maximum number of real-space cells 4x 4x 2
 Maximum number of reciprocal cells 2x 2x 5

 FEWALD executed in parallel
    FEWALD:  cpu time    0.0020: real time    0.0023


----------------------------------------- Iteration    1(   1)  ---------------------------------------


    POTLOK:  cpu time    0.0830: real time    0.0864
    SETDIJ:  cpu time    0.0130: real time    0.0118
     EDDAV:  cpu time    6.3410: real time    6.3949
       DOS:  cpu time    0.0040: real time    0.0040
    --------------------------------------------
      LOOP:  cpu time    6.4430: real time    6.5200

 eigenvalue-minimisations  : 10912
 total energy-change (2. order) : 0.1814697E+04  (-0.8695469E+04)
 number of electron     208.0000000 magnetization      11.2000000
 augmentation part      208.0000000 magnetization      11.2000000

 Free energy of the ion-electron system (eV)
  ---------------------------------------------------
  alpha Z        PSCENC =      1068.18425370
  Ewald energy   TEWEN  =    -11962.70590893
  -Hartree energ DENC   =     -3654.07274696
  -exchange      EXHF   =         0.00000000
  -V(xc)+E(xc)   XCENC  =       450.59478841
  PAW double counting   =     12479.98677894   -12130.32095182
  entropy T*S    EENTRO =         0.00115429
  eigenvalues    EBANDS =       793.27048015
  atomic energy  EATOM  =     14769.75958767
  Solvation  Ediel_sol  =         0.00000000
  ---------------------------------------------------
  free energy    TOTEN  =      1814.69743546 eV

  energy without entropy =     1814.69628117  energy(sigma->0) =     1814.69714688


--------------------------------------------------------------------------------------------------------




----------------------------------------- Iteration    1(   2)  ---------------------------------------


     EDDAV:  cpu time    6.5490: real time    6.5830
       DOS:  cpu time    0.0040: real time    0.0040
    --------------------------------------------
      LOOP:  cpu time    6.5530: real time    6.5933

 eigenvalue-minimisations  : 11200
 total energy-change (2. order) :-0.1795067E+04  (-0.1682996E+04)
 number of electron     208.0000000 magnetization      11.2000000
 augmentation part      208.0000000 magnetization      11.2000000

 Free energy of the ion-electron system (eV)
  ---------------------------------------------------
  alpha Z        PSCENC =      1068.18425370
  Ewald energy   TEWEN  =    -11962.70590893
  -Hartree energ DENC   =     -3654.07274696
  -exchange      EXHF   =         0.00000000
  -V(xc)+E(xc)   XCENC  =       450.59478841
  PAW double counting   =     12479.98677894   -12130.32095182
  entropy T*S    EENTRO =        -0.00113902
  eigenvalues    EBANDS =     -1001.79429704
  atomic energy  EATOM  =     14769.75958767
  Solvation  Ediel_sol  =         0.00000000
  ---------------------------------------------------
  free energy    TOTEN  =        19.63036495 eV

  energy without entropy =       19.63150397  energy(sigma->0) =       19.63064970


--------------------------------------------------------------------------------------------------------




----------------------------------------- Iteration    1(   3)  ---------------------------------------


     EDDAV:  cpu time    7.8168: real time    7.8415
       DOS:  cpu time    0.0040: real time    0.0041
    --------------------------------------------
      LOOP:  cpu time    7.8218: real time    7.8550

 eigenvalue-minimisations  : 14728
 total energy-change (2. order) :-0.2299679E+03  (-0.2208199E+03)
 number of electron     208.0000000 magnetization      11.2000000
 augmentation part      208.0000000 magnetization      11.2000000

 Free energy of the ion-electron system (eV)
  ---------------------------------------------------
  alpha Z        PSCENC =      1068.18425370
  Ewald energy   TEWEN  =    -11962.70590893
  -Hartree energ DENC   =     -3654.07274696
  -exchange      EXHF   =         0.00000000
  -V(xc)+E(xc)   XCENC  =       450.59478841
  PAW double counting   =     12479.98677894   -12130.32095182
  entropy T*S    EENTRO =        -0.00159184
  eigenvalues    EBANDS =     -1231.76179330
  atomic energy  EATOM  =     14769.75958767
  Solvation  Ediel_sol  =         0.00000000
  ---------------------------------------------------
  free energy    TOTEN  =      -210.33758412 eV

  energy without entropy =     -210.33599228  energy(sigma->0) =     -210.33718616


--------------------------------------------------------------------------------------------------------




----------------------------------------- Iteration    1(   4)  ---------------------------------------


     EDDAV:  cpu time    7.6128: real time    7.7009
       DOS:  cpu time    0.0040: real time    0.0042
    --------------------------------------------
      LOOP:  cpu time    7.6278: real time    7.7420

 eigenvalue-minimisations  : 14384
 total energy-change (2. order) :-0.1093312E+02  (-0.1083816E+02)
 number of electron     208.0000000 magnetization      11.2000000
 augmentation part      208.0000000 magnetization      11.2000000

 Free energy of the ion-electron system (eV)
  ---------------------------------------------------
  alpha Z        PSCENC =      1068.18425370
  Ewald energy   TEWEN  =    -11962.70590893
  -Hartree energ DENC   =     -3654.07274696
  -exchange      EXHF   =         0.00000000
  -V(xc)+E(xc)   XCENC  =       450.59478841
  PAW double counting   =     12479.98677894   -12130.32095182
  entropy T*S    EENTRO =        -0.00088724
  eigenvalues    EBANDS =     -1242.69561480
  atomic energy  EATOM  =     14769.75958767
  Solvation  Ediel_sol  =         0.00000000
  ---------------------------------------------------
  free energy    TOTEN  =      -221.27070103 eV

  energy without entropy =     -221.26981379  energy(sigma->0) =     -221.27047922


--------------------------------------------------------------------------------------------------------




----------------------------------------- Iteration    1(   5)  ---------------------------------------


     EDDAV:  cpu time    9.4706: real time    9.5645
       DOS:  cpu time    0.0040: real time    0.0041
    CHARGE:  cpu time    0.1480: real time    0.1588
    MIXING:  cpu time    0.0020: real time    0.0014
    --------------------------------------------
      LOOP:  cpu time    9.6255: real time    9.7373

 eigenvalue-minimisations  : 19400
 total energy-change (2. order) :-0.7399108E+00  (-0.7389236E+00)
 number of electron     207.9999999 magnetization       9.3955059
 augmentation part       30.2418898 magnetization       7.1234487

 Broyden mixing:
  rms(total) = 0.12781E+02    rms(broyden)= 0.12780E+02
  rms(prec ) = 0.13041E+02
  weight for this iteration     100.00

 Free energy of the ion-electron system (eV)
  ---------------------------------------------------
  alpha Z        PSCENC =      1068.18425370
  Ewald energy   TEWEN  =    -11962.70590893
  -Hartree energ DENC   =     -3654.07274696
  -exchange      EXHF   =         0.00000000
  -V(xc)+E(xc)   XCENC  =       450.59478841
  PAW double counting   =     12479.98677894   -12130.32095182
  entropy T*S    EENTRO =        -0.00085740
  eigenvalues    EBANDS =     -1243.43555543
  atomic energy  EATOM  =     14769.75958767
  Solvation  Ediel_sol  =         0.00000000
  ---------------------------------------------------
  free energy    TOTEN  =      -222.01061183 eV

  energy without entropy =     -222.00975442  energy(sigma->0) =     -222.01039747


--------------------------------------------------------------------------------------------------------




----------------------------------------- Iteration    1(   6)  ---------------------------------------


    POTLOK:  cpu time    0.0820: real time    0.0822
    SETDIJ:  cpu time    0.0120: real time    0.0117
    EDDIAG:  cpu time    1.7167: real time    1.7268
  RMM-DIIS:  cpu time    1.5118: real time    1.5282
    ORTHCH:  cpu time    0.4589: real time    0.4619
       DOS:  cpu time    0.0040: real time    0.0043
    CHARGE:  cpu time    0.1390: real time    0.1502
    MIXING:  cpu time    0.0020: real time    0.0252
    --------------------------------------------
      LOOP:  cpu time    3.9264: real time    3.9998

 eigenvalue-minimisations  : 11112
 total energy-change (2. order) : 0.3238597E+02  (-0.2081182E+02)
 number of electron     207.9999991 magnetization       7.5009742
 augmentation part       33.2529120 magnetization       5.4371207

 Broyden mixing:
  rms(total) = 0.60811E+01    rms(broyden)= 0.60799E+01
  rms(prec ) = 0.63006E+01
  weight for this iteration     100.00

 eigenvalues of (default mixing * dielectric matrix)
  average eigenvalue GAMMA=   1.3150
  1.3150

 Free energy of the ion-electron system (eV)
  ---------------------------------------------------
  alpha Z        PSCENC =      1068.18425370
  Ewald energy   TEWEN  =    -11962.70590893
  -Hartree energ DENC   =     -3776.09462378
  -exchange      EXHF   =         0.00000000
  -V(xc)+E(xc)   XCENC  =       465.93849355
  PAW double counting   =     15299.45007262   -14975.51771933
  entropy T*S    EENTRO =        -0.00623637
  eigenvalues    EBANDS =     -1078.63256362
  atomic energy  EATOM  =     14769.75958767
  Solvation  Ediel_sol  =         0.00000000
  ---------------------------------------------------
  free energy    TOTEN  =      -189.62464450 eV

  energy without entropy =     -189.61840812  energy(sigma->0) =     -189.62308540


--------------------------------------------------------------------------------------------------------




----------------------------------------- Iteration    1(   7)  ---------------------------------------


    POTLOK:  cpu time    0.0810: real time    0.0815
    SETDIJ:  cpu time    0.0120: real time    0.0116
    EDDIAG:  cpu time    1.7147: real time    1.7255
  RMM-DIIS:  cpu time    1.4798: real time    1.4965
    ORTHCH:  cpu time    0.4579: real time    0.4643
       DOS:  cpu time    0.0040: real time    0.0043
    CHARGE:  cpu time    0.1540: real time    0.1542
    MIXING:  cpu time    0.0010: real time    0.0035
    --------------------------------------------
      LOOP:  cpu time    3.9044: real time    3.9522

 eigenvalue-minimisations  : 10947
 total energy-change (2. order) :-0.1797568E+02  (-0.4928583E+01)
 number of electron     208.0000004 magnetization       6.2407939
 augmentation part       31.5773152 magnetization       5.2723359

 Broyden mixing:
  rms(total) = 0.67150E+01    rms(broyden)= 0.67141E+01
  rms(prec ) = 0.77293E+01
  weight for this iteration     100.00

 eigenvalues of (default mixing * dielectric matrix)
  average eigenvalue GAMMA=   1.0616
  1.7304  0.3928

 Free energy of the ion-electron system (eV)
  ---------------------------------------------------
  alpha Z        PSCENC =      1068.18425370
  Ewald energy   TEWEN  =    -11962.70590893
  -Hartree energ DENC   =     -3707.30954797
  -exchange      EXHF   =         0.00000000
  -V(xc)+E(xc)   XCENC  =       458.51860730
  PAW double counting   =     17492.14671921   -17178.35171492
  entropy T*S    EENTRO =        -0.00580665
  eigenvalues    EBANDS =     -1147.83651759
  atomic energy  EATOM  =     14769.75958767
  Solvation  Ediel_sol  =         0.00000000
  ---------------------------------------------------
  free energy    TOTEN  =      -207.60032818 eV

  energy without entropy =     -207.59452153  energy(sigma->0) =     -207.59887652


--------------------------------------------------------------------------------------------------------




----------------------------------------- Iteration    1(   8)  ---------------------------------------


    POTLOK:  cpu time    0.0790: real time    0.0918
    SETDIJ:  cpu time    0.0120: real time    0.0115
    EDDIAG:  cpu time    1.7157: real time    1.7262
  RMM-DIIS:  cpu time    1.4588: real time    1.4751
    ORTHCH:  cpu time    0.4589: real time    0.4626
       DOS:  cpu time    0.0050: real time    0.0045
    CHARGE:  cpu time    0.1420: real time    0.1423
    MIXING:  cpu time    0.0010: real time    0.0007
    --------------------------------------------
      LOOP:  cpu time    3.8744: real time    3.9232

 eigenvalue-minimisations  : 10887
 total energy-change (2. order) : 0.1614826E+02  (-0.1649944E+01)
 number of electron     207.9999999 magnetization       4.7089657
 augmentation part       31.8928021 magnetization       3.3823540

 Broyden mixing:
  rms(total) = 0.34381E+01    rms(broyden)= 0.34373E+01
  rms(prec ) = 0.40594E+01
  weight for this iteration     100.00

 eigenvalues of (default mixing * dielectric matrix)
  average eigenvalue GAMMA=   1.0790
  2.2867  0.6070  0.3433

 Free energy of the ion-electron system (eV)
  ---------------------------------------------------
  alpha Z        PSCENC =      1068.18425370
  Ewald energy   TEWEN  =    -11962.70590893
  -Hartree energ DENC   =     -3704.43697529
  -exchange      EXHF   =         0.00000000
  -V(xc)+E(xc)   XCENC  =       458.87570036
  PAW double counting   =     18640.89795602   -18333.75385565
  entropy T*S    EENTRO =        -0.01022836
  eigenvalues    EBANDS =     -1128.26259316
  atomic energy  EATOM  =     14769.75958767
  Solvation  Ediel_sol  =         0.00000000
  ---------------------------------------------------
  free energy    TOTEN  =      -191.45206365 eV

  energy without entropy =     -191.44183530  energy(sigma->0) =     -191.44950656


--------------------------------------------------------------------------------------------------------




----------------------------------------- Iteration    1(   9)  ---------------------------------------


    POTLOK:  cpu time    0.0990: real time    0.0990
    SETDIJ:  cpu time    0.0080: real time    0.0185
    EDDIAG:  cpu time    1.7167: real time    1.7219
  RMM-DIIS:  cpu time    1.4608: real time    1.4764
    ORTHCH:  cpu time    0.4569: real time    0.4609
       DOS:  cpu time    0.0040: real time    0.0043
    CHARGE:  cpu time    0.1410: real time    0.1404
    MIXING:  cpu time    0.0000: real time    0.0007
    --------------------------------------------
      LOOP:  cpu time    3.8864: real time    3.9307

 eigenvalue-minimisations  : 10888
 total energy-change (2. order) : 0.4053654E+01  (-0.1997562E+01)
 number of electron     207.9999997 magnetization       4.1728486
 augmentation part       32.2746551 magnetization       3.4084396

 Broyden mixing:
  rms(total) = 0.22187E+01    rms(broyden)= 0.22176E+01
  rms(prec ) = 0.27240E+01
  weight for this iteration     100.00

 eigenvalues of (default mixing * dielectric matrix)
  average eigenvalue GAMMA=   0.9492
  2.3447  0.6241  0.5684  0.2597

 Free energy of the ion-electron system (eV)
  ---------------------------------------------------
  alpha Z        PSCENC =      1068.18425370
  Ewald energy   TEWEN  =    -11962.70590893
  -Hartree energ DENC   =     -3727.88052532
  -exchange      EXHF   =         0.00000000
  -V(xc)+E(xc)   XCENC  =       461.50364916
  PAW double counting   =     19907.19625478   -19607.73633498
  entropy T*S    EENTRO =        -0.02106237
  eigenvalues    EBANDS =     -1095.69832327
  atomic energy  EATOM  =     14769.75958767
  Solvation  Ediel_sol  =         0.00000000
  ---------------------------------------------------
  free energy    TOTEN  =      -187.39840955 eV

  energy without entropy =     -187.37734719  energy(sigma->0) =     -187.39314396


--------------------------------------------------------------------------------------------------------




----------------------------------------- Iteration    1(  10)  ---------------------------------------


    POTLOK:  cpu time    0.0820: real time    0.0818
    SETDIJ:  cpu time    0.0110: real time    0.0114
    EDDIAG:  cpu time    1.7457: real time    1.7615
  RMM-DIIS:  cpu time    1.5438: real time    1.5589
    ORTHCH:  cpu time    0.4579: real time    0.4590
       DOS:  cpu time    0.0040: real time    0.0040
    CHARGE:  cpu time    0.1400: real time    0.1400
    MIXING:  cpu time    0.0010: real time    0.0010
    --------------------------------------------
      LOOP:  cpu time    3.9864: real time    4.0326

 eigenvalue-minimisations  : 11435
 total energy-change (2. order) : 0.2995286E+01  (-0.3145817E+00)
 number of electron     207.9999995 magnetization       3.9406637
 augmentation part       32.3651008 magnetization       3.3821015

 Broyden mixing:
  rms(total) = 0.11214E+01    rms(broyden)= 0.11207E+01
  rms(prec ) = 0.16412E+01
  weight for this iteration     100.00

 eigenvalues of (default mixing * dielectric matrix)
  average eigenvalue GAMMA=   0.8368
  2.3022  0.7187  0.5319  0.3156  0.3156

 Free energy of the ion-electron system (eV)
  ---------------------------------------------------
  alpha Z        PSCENC =      1068.18425370
  Ewald energy   TEWEN  =    -11962.70590893
  -Hartree energ DENC   =     -3730.33729510
  -exchange      EXHF   =         0.00000000
  -V(xc)+E(xc)   XCENC  =       461.72475634
  PAW double counting   =     20001.46749457   -19702.51656295
  entropy T*S    EENTRO =        -0.00218982
  eigenvalues    EBANDS =     -1089.97725917
  atomic energy  EATOM  =     14769.75958767
  Solvation  Ediel_sol  =         0.00000000
  ---------------------------------------------------
  free energy    TOTEN  =      -184.40312369 eV

  energy without entropy =     -184.40093388  energy(sigma->0) =     -184.40257624


--------------------------------------------------------------------------------------------------------




----------------------------------------- Iteration    1(  11)  ---------------------------------------


    POTLOK:  cpu time    0.0810: real time    0.0816
    SETDIJ:  cpu time    0.0120: real time    0.0115
    EDDIAG:  cpu time    1.7317: real time    1.7511
  RMM-DIIS:  cpu time    1.5588: real time    1.5964
    ORTHCH:  cpu time    0.4579: real time    0.4600
       DOS:  cpu time    0.0040: real time    0.0044
    CHARGE:  cpu time    0.1400: real time    0.1404
    MIXING:  cpu time    0.0010: real time    0.0008
    --------------------------------------------
      LOOP:  cpu time    3.9874: real time    4.0540

 eigenvalue-minimisations  : 11624
 total energy-change (2. order) : 0.7974750E+00  (-0.5904583E-01)
 number of electron     207.9999995 magnetization       3.7109568
 augmentation part       32.2893388 magnetization       3.2586122

 Broyden mixing:
  rms(total) = 0.10278E+01    rms(broyden)= 0.10274E+01
  rms(prec ) = 0.11276E+01
  weight for this iteration     100.00

 eigenvalues of (default mixing * dielectric matrix)
  average eigenvalue GAMMA=   0.7434
  2.2607  0.7224  0.5104  0.5104  0.2896  0.1669

 Free energy of the ion-electron system (eV)
  ---------------------------------------------------
  alpha Z        PSCENC =      1068.18425370
  Ewald energy   TEWEN  =    -11962.70590893
  -Hartree energ DENC   =     -3729.29726940
  -exchange      EXHF   =         0.00000000
  -V(xc)+E(xc)   XCENC  =       461.59145244
  PAW double counting   =     19949.64102176   -19650.42546352
  entropy T*S    EENTRO =         0.01013114
  eigenvalues    EBANDS =     -1090.36345357
  atomic energy  EATOM  =     14769.75958767
  Solvation  Ediel_sol  =         0.00000000
  ---------------------------------------------------
  free energy    TOTEN  =      -183.60564871 eV

  energy without entropy =     -183.61577985  energy(sigma->0) =     -183.60818150


--------------------------------------------------------------------------------------------------------




----------------------------------------- Iteration    1(  12)  ---------------------------------------


    POTLOK:  cpu time    0.0810: real time    0.0814
    SETDIJ:  cpu time    0.0120: real time    0.0114
    EDDIAG:  cpu time    1.7237: real time    1.7452
  RMM-DIIS:  cpu time    1.6767: real time    1.6912
    ORTHCH:  cpu time    0.4569: real time    0.4619
       DOS:  cpu time    0.0040: real time    0.0040
    CHARGE:  cpu time    0.1410: real time    0.1405
    MIXING:  cpu time    0.0010: real time    0.0009
    --------------------------------------------
      LOOP:  cpu time    4.0974: real time    4.1439

 eigenvalue-minimisations  : 12380
 total energy-change (2. order) : 0.2174288E+00  (-0.2162645E-01)
 number of electron     207.9999995 magnetization       3.4315371
 augmentation part       32.2742084 magnetization       2.9610387

 Broyden mixing:
  rms(total) = 0.70452E+00    rms(broyden)= 0.70445E+00
  rms(prec ) = 0.77247E+00
  weight for this iteration     100.00

 eigenvalues of (default mixing * dielectric matrix)
  average eigenvalue GAMMA=   0.7348
  2.2275  0.6616  0.6616  0.7003  0.4036  0.2581  0.2310

 Free energy of the ion-electron system (eV)
  ---------------------------------------------------
  alpha Z        PSCENC =      1068.18425370
  Ewald energy   TEWEN  =    -11962.70590893
  -Hartree energ DENC   =     -3726.92964475
  -exchange      EXHF   =         0.00000000
  -V(xc)+E(xc)   XCENC  =       461.39619944
  PAW double counting   =     19880.56097210   -19581.03671027
  entropy T*S    EENTRO =         0.01318992
  eigenvalues    EBANDS =     -1092.63015876
  atomic energy  EATOM  =     14769.75958767
  Solvation  Ediel_sol  =         0.00000000
  ---------------------------------------------------
  free energy    TOTEN  =      -183.38821987 eV

  energy without entropy =     -183.40140980  energy(sigma->0) =     -183.39151735


--------------------------------------------------------------------------------------------------------




----------------------------------------- Iteration    1(  13)  ---------------------------------------


    POTLOK:  cpu time    0.0930: real time    0.0933
    SETDIJ:  cpu time    0.0120: real time    0.0115
    EDDIAG:  cpu time    1.7157: real time    1.7342
  RMM-DIIS:  cpu time    1.5488: real time    1.5647
    ORTHCH:  cpu time    0.4709: real time    0.4939
       DOS:  cpu time    0.0040: real time    0.0045
    CHARGE:  cpu time    0.1500: real time    0.1612
    MIXING:  cpu time    0.0010: real time    0.0014
    --------------------------------------------
      LOOP:  cpu time    3.9954: real time    4.0731

 eigenvalue-minimisations  : 11458
 total energy-change (2. order) : 0.3854217E-01  (-0.1073665E-01)
 number of electron     207.9999995 magnetization       2.4393398
 augmentation part       32.2658575 magnetization       1.9932220

 Broyden mixing:
  rms(total) = 0.57542E+00    rms(broyden)= 0.57537E+00
  rms(prec ) = 0.62616E+00
  weight for this iteration     100.00

 eigenvalues of (default mixing * dielectric matrix)
  average eigenvalue GAMMA=   0.8194
  2.1630  1.2061  1.2061  0.6175  0.6175  0.2735  0.2735  0.1977

 Free energy of the ion-electron system (eV)
  ---------------------------------------------------
  alpha Z        PSCENC =      1068.18425370
  Ewald energy   TEWEN  =    -11962.70590893
  -Hartree energ DENC   =     -3725.34813178
  -exchange      EXHF   =         0.00000000
  -V(xc)+E(xc)   XCENC  =       461.26954265
  PAW double counting   =     19832.77735223   -19533.09297821
  entropy T*S    EENTRO =         0.00994376
  eigenvalues    EBANDS =     -1094.20333879
  atomic energy  EATOM  =     14769.75958767
  Solvation  Ediel_sol  =         0.00000000
  ---------------------------------------------------
  free energy    TOTEN  =      -183.34967770 eV

  energy without entropy =     -183.35962147  energy(sigma->0) =     -183.35216364


--------------------------------------------------------------------------------------------------------




----------------------------------------- Iteration    1(  14)  ---------------------------------------


    POTLOK:  cpu time    0.0890: real time    0.1089
    SETDIJ:  cpu time    0.0120: real time    0.0117
    EDDIAG:  cpu time    1.7067: real time    1.7693
  RMM-DIIS:  cpu time    1.4778: real time    1.4936
    ORTHCH:  cpu time    0.4569: real time    0.4593
       DOS:  cpu time    0.0040: real time    0.0041
    CHARGE:  cpu time    0.1410: real time    0.1412
    MIXING:  cpu time    0.0010: real time    0.0011
    --------------------------------------------
      LOOP:  cpu time    3.8884: real time    3.9959

 eigenvalue-minimisations  : 11034
 total energy-change (2. order) : 0.3547794E-01  (-0.1991084E-01)
 number of electron     207.9999995 magnetization       1.8325042
 augmentation part       32.2691470 magnetization       1.4696266

 Broyden mixing:
  rms(total) = 0.29200E+00    rms(broyden)= 0.29190E+00
  rms(prec ) = 0.32260E+00
  weight for this iteration     100.00

 eigenvalues of (default mixing * dielectric matrix)
  average eigenvalue GAMMA=   0.8545
  2.1930  1.4935  1.4935  0.6351  0.6351  0.5092  0.2695  0.2614  0.2001

 Free energy of the ion-electron system (eV)
  ---------------------------------------------------
  alpha Z        PSCENC =      1068.18425370
  Ewald energy   TEWEN  =    -11962.70590893
  -Hartree energ DENC   =     -3722.91031006
  -exchange      EXHF   =         0.00000000
  -V(xc)+E(xc)   XCENC  =       461.05670943
  PAW double counting   =     19730.72073635   -19430.76209870
  entropy T*S    EENTRO =         0.02381454
  eigenvalues    EBANDS =     -1096.68098376
  atomic energy  EATOM  =     14769.75958767
  Solvation  Ediel_sol  =         0.00000000
  ---------------------------------------------------
  free energy    TOTEN  =      -183.31419977 eV

  energy without entropy =     -183.33801430  energy(sigma->0) =     -183.32015340


--------------------------------------------------------------------------------------------------------




----------------------------------------- Iteration    1(  15)  ---------------------------------------


    POTLOK:  cpu time    0.0920: real time    0.0930
    SETDIJ:  cpu time    0.0120: real time    0.0222
    EDDIAG:  cpu time    1.7157: real time    1.7204
  RMM-DIIS:  cpu time    1.4738: real time    1.4885
    ORTHCH:  cpu time    0.4589: real time    0.4604
       DOS:  cpu time    0.0040: real time    0.0045
    CHARGE:  cpu time    0.1410: real time    0.1406
    MIXING:  cpu time    0.0010: real time    0.0011
    --------------------------------------------
      LOOP:  cpu time    3.8994: real time    3.9384

 eigenvalue-minimisations  : 10990
 total energy-change (2. order) :-0.2956863E-01  (-0.9486626E-02)
 number of electron     207.9999995 magnetization       1.3645015
 augmentation part       32.2805297 magnetization       1.0492664

 Broyden mixing:
  rms(total) = 0.23376E+00    rms(broyden)= 0.23369E+00
  rms(prec ) = 0.27133E+00
  weight for this iteration     100.00

 eigenvalues of (default mixing * dielectric matrix)
  average eigenvalue GAMMA=   0.8402
  2.0789  2.0789  1.1983  0.6924  0.6924  0.5866  0.3329  0.2824  0.2606  0.1991

 Free energy of the ion-electron system (eV)
  ---------------------------------------------------
  alpha Z        PSCENC =      1068.18425370
  Ewald energy   TEWEN  =    -11962.70590893
  -Hartree energ DENC   =     -3723.76413782
  -exchange      EXHF   =         0.00000000
  -V(xc)+E(xc)   XCENC  =       461.09858667
  PAW double counting   =     19732.64663291   -19432.81889119
  entropy T*S    EENTRO =         0.01646343
  eigenvalues    EBANDS =     -1095.76035482
  atomic energy  EATOM  =     14769.75958767
  Solvation  Ediel_sol  =         0.00000000
  ---------------------------------------------------
  free energy    TOTEN  =      -183.34376839 eV

  energy without entropy =     -183.36023182  energy(sigma->0) =     -183.34788425


--------------------------------------------------------------------------------------------------------




----------------------------------------- Iteration    1(  16)  ---------------------------------------


    POTLOK:  cpu time    0.0800: real time    0.0814
    SETDIJ:  cpu time    0.0120: real time    0.0115
    EDDIAG:  cpu time    1.7277: real time    1.7580
  RMM-DIIS:  cpu time    1.5098: real time    1.5158
    ORTHCH:  cpu time    0.4559: real time    0.4686
       DOS:  cpu time    0.0040: real time    0.0042
    CHARGE:  cpu time    0.1400: real time    0.1409
    MIXING:  cpu time    0.0020: real time    0.0011
    --------------------------------------------
      LOOP:  cpu time    3.9324: real time    3.9894

 eigenvalue-minimisations  : 11120
 total energy-change (2. order) :-0.4840434E-02  (-0.5253721E-02)
 number of electron     207.9999995 magnetization       1.2339876
 augmentation part       32.2796366 magnetization       0.9780728

 Broyden mixing:
  rms(total) = 0.15937E+00    rms(broyden)= 0.15932E+00
  rms(prec ) = 0.19921E+00
  weight for this iteration     100.00

 eigenvalues of (default mixing * dielectric matrix)
  average eigenvalue GAMMA=   0.8288
  2.2557  1.6424  1.3905  0.8315  0.8315  0.5988  0.5778  0.1997  0.2787  0.2695
  0.2409

 Free energy of the ion-electron system (eV)
  ---------------------------------------------------
  alpha Z        PSCENC =      1068.18425370
  Ewald energy   TEWEN  =    -11962.70590893
  -Hartree energ DENC   =     -3724.12251748
  -exchange      EXHF   =         0.00000000
  -V(xc)+E(xc)   XCENC  =       461.09868293
  PAW double counting   =     19723.25416122   -19423.44265056
  entropy T*S    EENTRO =         0.01186044
  eigenvalues    EBANDS =     -1095.38607781
  atomic energy  EATOM  =     14769.75958767
  Solvation  Ediel_sol  =         0.00000000
  ---------------------------------------------------
  free energy    TOTEN  =      -183.34860883 eV

  energy without entropy =     -183.36046927  energy(sigma->0) =     -183.35157394


--------------------------------------------------------------------------------------------------------




----------------------------------------- Iteration    1(  17)  ---------------------------------------


    POTLOK:  cpu time    0.0810: real time    0.0813
    SETDIJ:  cpu time    0.0110: real time    0.0114
    EDDIAG:  cpu time    1.8267: real time    1.8478
  RMM-DIIS:  cpu time    1.5978: real time    1.6190
    ORTHCH:  cpu time    0.4659: real time    0.4662
       DOS:  cpu time    0.0040: real time    0.0045
    CHARGE:  cpu time    0.1420: real time    0.1415
    MIXING:  cpu time    0.0010: real time    0.0012
    --------------------------------------------
      LOOP:  cpu time    4.1304: real time    4.1972

 eigenvalue-minimisations  : 11569
 total energy-change (2. order) : 0.4173013E-02  (-0.9983373E-03)
 number of electron     207.9999995 magnetization       0.8945937
 augmentation part       32.2678712 magnetization       0.6782546

 Broyden mixing:
  rms(total) = 0.11540E+00    rms(broyden)= 0.11537E+00
  rms(prec ) = 0.12649E+00
  weight for this iteration     100.00

 eigenvalues of (default mixing * dielectric matrix)
  average eigenvalue GAMMA=   0.8640
  2.3654  2.3654  1.1521  1.1521  0.7923  0.6108  0.6108  0.3250  0.1994  0.2880
  0.2535  0.2535

 Free energy of the ion-electron system (eV)
  ---------------------------------------------------
  alpha Z        PSCENC =      1068.18425370
  Ewald energy   TEWEN  =    -11962.70590893
  -Hartree energ DENC   =     -3725.18903196
  -exchange      EXHF   =         0.00000000
  -V(xc)+E(xc)   XCENC  =       461.14889993
  PAW double counting   =     19744.49515188   -19444.77566191
  entropy T*S    EENTRO =         0.02173791
  eigenvalues    EBANDS =     -1094.28346410
  atomic energy  EATOM  =     14769.75958767
  Solvation  Ediel_sol  =         0.00000000
  ---------------------------------------------------
  free energy    TOTEN  =      -183.34443581 eV

  energy without entropy =     -183.36617372  energy(sigma->0) =     -183.34987029


--------------------------------------------------------------------------------------------------------




----------------------------------------- Iteration    1(  18)  ---------------------------------------


    POTLOK:  cpu time    0.0820: real time    0.0815
    SETDIJ:  cpu time    0.0110: real time    0.0114
    EDDIAG:  cpu time    1.7267: real time    1.7659
  RMM-DIIS:  cpu time    1.4988: real time    1.5079
    ORTHCH:  cpu time    0.4629: real time    0.4749
       DOS:  cpu time    0.0040: real time    0.0044
    CHARGE:  cpu time    0.1420: real time    0.1415
    MIXING:  cpu time    0.0010: real time    0.0012
    --------------------------------------------
      LOOP:  cpu time    3.9284: real time    3.9953

 eigenvalue-minimisations  : 11106
 total energy-change (2. order) :-0.7612856E-02  (-0.8606981E-03)
 number of electron     207.9999995 magnetization       0.5328411
 augmentation part       32.2638811 magnetization       0.3639965

 Broyden mixing:
  rms(total) = 0.84659E-01    rms(broyden)= 0.84636E-01
  rms(prec ) = 0.10872E+00
  weight for this iteration     100.00

 eigenvalues of (default mixing * dielectric matrix)
  average eigenvalue GAMMA=   0.9224
  2.8346  2.3895  1.3856  1.3856  0.8236  0.6825  0.6825  0.5480  0.2861  0.2861
  0.1997  0.2582  0.2291

 Free energy of the ion-electron system (eV)
  ---------------------------------------------------
  alpha Z        PSCENC =      1068.18425370
  Ewald energy   TEWEN  =    -11962.70590893
  -Hartree energ DENC   =     -3726.05194038
  -exchange      EXHF   =         0.00000000
  -V(xc)+E(xc)   XCENC  =       461.18024426
  PAW double counting   =     19739.46666932   -19439.72050659
  entropy T*S    EENTRO =         0.01827501
  eigenvalues    EBANDS =     -1093.48272273
  atomic energy  EATOM  =     14769.75958767
  Solvation  Ediel_sol  =         0.00000000
  ---------------------------------------------------
  free energy    TOTEN  =      -183.35204867 eV

  energy without entropy =     -183.37032368  energy(sigma->0) =     -183.35661742


--------------------------------------------------------------------------------------------------------




----------------------------------------- Iteration    1(  19)  ---------------------------------------


    POTLOK:  cpu time    0.0800: real time    0.0815
    SETDIJ:  cpu time    0.0120: real time    0.0114
    EDDIAG:  cpu time    1.7297: real time    1.7453
  RMM-DIIS:  cpu time    1.5178: real time    1.5255
    ORTHCH:  cpu time    0.4669: real time    0.4792
       DOS:  cpu time    0.0050: real time    0.0044
    CHARGE:  cpu time    0.1400: real time    0.1411
    MIXING:  cpu time    0.0010: real time    0.0015
    --------------------------------------------
      LOOP:  cpu time    3.9534: real time    3.9989

 eigenvalue-minimisations  : 11159
 total energy-change (2. order) :-0.3399561E-02  (-0.1042560E-02)
 number of electron     207.9999995 magnetization       0.4296200
 augmentation part       32.2631858 magnetization       0.3199460

 Broyden mixing:
  rms(total) = 0.58553E-01    rms(broyden)= 0.58532E-01
  rms(prec ) = 0.74587E-01
  weight for this iteration     100.00

 eigenvalues of (default mixing * dielectric matrix)
  average eigenvalue GAMMA=   0.9232
  3.1969  2.2476  1.4801  1.4801  0.7781  0.6961  0.6678  0.6678  0.4564  0.2862
  0.2862  0.2572  0.1997  0.2248

 Free energy of the ion-electron system (eV)
  ---------------------------------------------------
  alpha Z        PSCENC =      1068.18425370
  Ewald energy   TEWEN  =    -11962.70590893
  -Hartree energ DENC   =     -3727.20150999
  -exchange      EXHF   =         0.00000000
  -V(xc)+E(xc)   XCENC  =       461.24377965
  PAW double counting   =     19750.52914646   -19450.81781724
  entropy T*S    EENTRO =         0.01855304
  eigenvalues    EBANDS =     -1092.36553260
  atomic energy  EATOM  =     14769.75958767
  Solvation  Ediel_sol  =         0.00000000
  ---------------------------------------------------
  free energy    TOTEN  =      -183.35544823 eV

  energy without entropy =     -183.37400128  energy(sigma->0) =     -183.36008649


--------------------------------------------------------------------------------------------------------




----------------------------------------- Iteration    1(  20)  ---------------------------------------


    POTLOK:  cpu time    0.0810: real time    0.0815
    SETDIJ:  cpu time    0.0120: real time    0.0114
    EDDIAG:  cpu time    1.7357: real time    1.7522
  RMM-DIIS:  cpu time    1.6028: real time    1.6087
    ORTHCH:  cpu time    0.4509: real time    0.4627
       DOS:  cpu time    0.0050: real time    0.0045
    CHARGE:  cpu time    0.1410: real time    0.1418
    MIXING:  cpu time    0.0020: real time    0.0013
    --------------------------------------------
      LOOP:  cpu time    4.0314: real time    4.0727

 eigenvalue-minimisations  : 11752
 total energy-change (2. order) : 0.4431337E-03  (-0.1777147E-03)
 number of electron     207.9999995 magnetization       0.3474984
 augmentation part       32.2606763 magnetization       0.2613227

 Broyden mixing:
  rms(total) = 0.27599E-01    rms(broyden)= 0.27573E-01
  rms(prec ) = 0.28725E-01
  weight for this iteration     100.00

 eigenvalues of (default mixing * dielectric matrix)
  average eigenvalue GAMMA=   0.9283
  3.3460  2.1749  1.5257  1.5257  0.8846  0.8846  0.6626  0.6155  0.6155  0.4346
  0.2855  0.2855  0.1997  0.2564  0.2269

 Free energy of the ion-electron system (eV)
  ---------------------------------------------------
  alpha Z        PSCENC =      1068.18425370
  Ewald energy   TEWEN  =    -11962.70590893
  -Hartree energ DENC   =     -3727.32898878
  -exchange      EXHF   =         0.00000000
  -V(xc)+E(xc)   XCENC  =       461.25140666
  PAW double counting   =     19761.55361030   -19461.87531237
  entropy T*S    EENTRO =         0.02111550
  eigenvalues    EBANDS =     -1092.21476884
  atomic energy  EATOM  =     14769.75958767
  Solvation  Ediel_sol  =         0.00000000
  ---------------------------------------------------
  free energy    TOTEN  =      -183.35500510 eV

  energy without entropy =     -183.37612060  energy(sigma->0) =     -183.36028397


--------------------------------------------------------------------------------------------------------




----------------------------------------- Iteration    1(  21)  ---------------------------------------


    POTLOK:  cpu time    0.0800: real time    0.0809
    SETDIJ:  cpu time    0.0120: real time    0.0114
    EDDIAG:  cpu time    1.7297: real time    1.7461
  RMM-DIIS:  cpu time    1.6927: real time    1.7108
    ORTHCH:  cpu time    0.4609: real time    0.4628
       DOS:  cpu time    0.0040: real time    0.0043
    CHARGE:  cpu time    0.1410: real time    0.1412
    MIXING:  cpu time    0.0010: real time    0.0014
    --------------------------------------------
      LOOP:  cpu time    4.1214: real time    4.1678

 eigenvalue-minimisations  : 12308
 total energy-change (2. order) :-0.7458654E-03  (-0.8332077E-04)
 number of electron     207.9999995 magnetization       0.1948509
 augmentation part       32.2629208 magnetization       0.1228981

 Broyden mixing:
  rms(total) = 0.27365E-01    rms(broyden)= 0.27360E-01
  rms(prec ) = 0.30199E-01
  weight for this iteration     100.00

 eigenvalues of (default mixing * dielectric matrix)
  average eigenvalue GAMMA=   0.9863
  3.6930  2.1758  1.6915  1.6915  1.1802  1.1802  0.6639  0.6639  0.6671  0.5411
  0.3798  0.1997  0.2857  0.2857  0.2563  0.2261

 Free energy of the ion-electron system (eV)
  ---------------------------------------------------
  alpha Z        PSCENC =      1068.18425370
  Ewald energy   TEWEN  =    -11962.70590893
  -Hartree energ DENC   =     -3727.21280572
  -exchange      EXHF   =         0.00000000
  -V(xc)+E(xc)   XCENC  =       461.24689470
  PAW double counting   =     19762.42065462   -19462.73911317
  entropy T*S    EENTRO =         0.02049869
  eigenvalues    EBANDS =     -1092.32981251
  atomic energy  EATOM  =     14769.75958767
  Solvation  Ediel_sol  =         0.00000000
  ---------------------------------------------------
  free energy    TOTEN  =      -183.35575096 eV

  energy without entropy =     -183.37624965  energy(sigma->0) =     -183.36087563


--------------------------------------------------------------------------------------------------------




----------------------------------------- Iteration    1(  22)  ---------------------------------------


    POTLOK:  cpu time    0.0810: real time    0.0811
    SETDIJ:  cpu time    0.0120: real time    0.0115
    EDDIAG:  cpu time    1.7857: real time    1.8050
  RMM-DIIS:  cpu time    1.6028: real time    1.6213
    ORTHCH:  cpu time    0.4579: real time    0.4587
       DOS:  cpu time    0.0050: real time    0.0044
    CHARGE:  cpu time    0.1400: real time    0.1426
    MIXING:  cpu time    0.0020: real time    0.0015
    --------------------------------------------
      LOOP:  cpu time    4.0874: real time    4.1342

 eigenvalue-minimisations  : 11346
 total energy-change (2. order) :-0.6301078E-03  (-0.7687527E-04)
 number of electron     207.9999995 magnetization       0.1054410
 augmentation part       32.2640397 magnetization       0.0613186

 Broyden mixing:
  rms(total) = 0.12910E-01    rms(broyden)= 0.12896E-01
  rms(prec ) = 0.13848E-01
  weight for this iteration     100.00

 eigenvalues of (default mixing * dielectric matrix)
  average eigenvalue GAMMA=   1.0158
  4.2119  2.3008  1.7141  1.7141  1.2812  1.2812  0.6825  0.6825  0.7020  0.5228
  0.5228  0.3993  0.1997  0.2857  0.2857  0.2564  0.2262

 Free energy of the ion-electron system (eV)
  ---------------------------------------------------
  alpha Z        PSCENC =      1068.18425370
  Ewald energy   TEWEN  =    -11962.70590893
  -Hartree energ DENC   =     -3727.05909675
  -exchange      EXHF   =         0.00000000
  -V(xc)+E(xc)   XCENC  =       461.23714171
  PAW double counting   =     19763.18934575   -19463.49426281
  entropy T*S    EENTRO =         0.02095100
  eigenvalues    EBANDS =     -1092.48839240
  atomic energy  EATOM  =     14769.75958767
  Solvation  Ediel_sol  =         0.00000000
[...]
  0.022   0.115  -0.589   0.643   1.071   0.536  -0.667  -1.026  -0.270   0.147   0.156   2.271   0.048   0.134  -0.085  -0.082
  0.078   0.019  -0.251   0.070   0.648   0.220  -0.092  -0.615   0.082  -0.156  -0.077   0.048   2.262  -0.042   0.081   0.039
  0.018   0.018   0.107   0.358   0.181  -0.068  -0.330  -0.180  -0.779  -0.247  -0.146   0.134  -0.042   0.396   0.129   0.076
 -0.011  -0.022  -0.460  -0.290   0.307   0.420   0.287  -0.280  -0.247  -1.237  -0.252  -0.085   0.081   0.129   0.626   0.131
 -0.039  -0.024  -0.178  -0.395  -0.050   0.187   0.394   0.051  -0.147  -0.254  -0.840  -0.082   0.039   0.076   0.131   0.430
 -0.018  -0.063   0.324  -0.325  -0.481  -0.296   0.350   0.469   0.134  -0.085  -0.081  -1.138  -0.039  -0.068   0.048   0.044
 -0.049  -0.010   0.130  -0.027  -0.371  -0.112   0.040   0.355  -0.041   0.082   0.038  -0.040  -1.179   0.021  -0.043  -0.020
 total augmentation occupancy for first ion, spin component:           2
 -0.000  -0.000   0.000  -0.000   0.000   0.000   0.000  -0.000   0.000  -0.000   0.000  -0.000   0.000  -0.000   0.000  -0.000
 -0.000  -0.000   0.000  -0.000  -0.000  -0.000   0.000   0.000  -0.000  -0.000  -0.000   0.000   0.000   0.000   0.000   0.000
  0.000   0.000  -0.000   0.000   0.000   0.000  -0.000  -0.000  -0.000  -0.000   0.000   0.000   0.000   0.000   0.000  -0.000
 -0.000  -0.000   0.000  -0.000   0.000  -0.000   0.000  -0.000   0.000   0.000  -0.000   0.000  -0.000  -0.000  -0.000   0.000
  0.000  -0.000   0.000   0.000  -0.000  -0.000  -0.000   0.000   0.000  -0.000   0.000  -0.000   0.000  -0.000   0.000  -0.000
  0.000  -0.000   0.000  -0.000  -0.000  -0.000   0.000   0.000   0.000   0.000  -0.000  -0.000  -0.000  -0.000  -0.000   0.000
  0.000   0.000  -0.000   0.000  -0.000   0.000  -0.000   0.000  -0.000  -0.000   0.000  -0.000   0.000   0.000   0.000  -0.000
 -0.000   0.000  -0.000  -0.000   0.000   0.000   0.000  -0.000  -0.000   0.000  -0.000   0.000  -0.000   0.000  -0.000   0.000
  0.000  -0.000  -0.000   0.000   0.000   0.000  -0.000  -0.000  -0.000  -0.000  -0.000   0.000   0.000   0.000   0.000   0.000
 -0.000  -0.000  -0.000   0.000  -0.000   0.000  -0.000   0.000  -0.000  -0.000   0.000  -0.000   0.000   0.000   0.000   0.000
  0.000  -0.000   0.000  -0.000   0.000  -0.000   0.000  -0.000  -0.000   0.000  -0.000  -0.000   0.000   0.000   0.000   0.000
 -0.000   0.000   0.000   0.000  -0.000  -0.000  -0.000   0.000   0.000  -0.000  -0.000  -0.000   0.000  -0.000   0.000   0.000
  0.000   0.000   0.000  -0.000   0.000  -0.000   0.000  -0.000   0.000   0.000   0.000   0.000  -0.000  -0.000  -0.000  -0.000
 -0.000   0.000   0.000  -0.000  -0.000  -0.000   0.000   0.000   0.000   0.000   0.000  -0.000  -0.000  -0.000  -0.000  -0.000
  0.000   0.000   0.000  -0.000   0.000  -0.000   0.000  -0.000   0.000   0.000   0.000   0.000  -0.000  -0.000  -0.000  -0.000
 -0.000   0.000  -0.000   0.000  -0.000   0.000  -0.000   0.000   0.000   0.000   0.000   0.000  -0.000  -0.000  -0.000  -0.000
  0.000  -0.000  -0.000  -0.000   0.000   0.000   0.000  -0.000  -0.000   0.000   0.000   0.000  -0.000   0.000  -0.000  -0.000
 -0.000  -0.000  -0.000   0.000  -0.000   0.000  -0.000  -0.000  -0.000  -0.000  -0.000  -0.000   0.000   0.000   0.000   0.000


------------------------ aborting loop because EDIFF is reached ----------------------------------------


 


 total charge     
 
# of ion     s       p       d       tot
----------------------------------------
  1        2.004   5.927   0.216   8.147
  2        2.003   5.926   0.215   8.144
  3        2.000   5.911   0.192   8.103
  4        2.004   5.924   0.224   8.152
  5        0.593   0.555   6.977   8.125
  6        0.598   0.548   6.998   8.145
  7        0.603   0.638   7.014   8.254
  8        0.601   0.631   7.002   8.234
  9        0.593   0.618   6.941   8.152
 10        0.577   0.533   7.029   8.139
 11        0.601   0.637   7.000   8.238
 12        0.599   0.633   7.004   8.236
 13        1.604   3.397   0.000   5.001
 14        1.612   3.374   0.000   4.986
 15        1.587   3.489   0.000   5.076
 16        1.583   3.482   0.000   5.065
 17        1.585   3.481   0.000   5.066
 18        1.584   3.475   0.000   5.059
 19        1.577   3.474   0.000   5.051
 20        1.581   3.499   0.000   5.079
 21        1.607   3.389   0.000   4.995
 22        1.608   3.382   0.000   4.991
 23        1.582   3.479   0.000   5.060
 24        1.585   3.477   0.000   5.062
 25        1.584   3.486   0.000   5.071
 26        1.586   3.490   0.000   5.076
 27        1.580   3.488   0.000   5.068
 28        1.578   3.481   0.000   5.059
------------------------------------------------
tot       38.200  83.823  56.812 178.835
 


 magnetization (x)
 
# of ion     s       p       d       tot
----------------------------------------
  1       -0.000  -0.000  -0.000  -0.000
  2        0.000   0.000   0.000   0.000
  3       -0.000   0.000   0.000   0.000
  4       -0.000  -0.000  -0.000  -0.000
  5       -0.000  -0.000  -0.000  -0.000
  6       -0.000  -0.000  -0.000  -0.000
  7        0.000   0.000   0.000   0.000
  8        0.000   0.000   0.000   0.000
  9        0.000   0.000   0.000   0.000
 10        0.000   0.000   0.000   0.000
 11       -0.000  -0.000   0.000   0.000
 12       -0.000  -0.000   0.000   0.000
 13       -0.000   0.000   0.000   0.000
 14        0.000  -0.000   0.000  -0.000
 15        0.000  -0.000   0.000  -0.000
 16       -0.000   0.000   0.000   0.000
 17        0.000  -0.000   0.000  -0.000
 18       -0.000   0.000   0.000   0.000
 19       -0.000   0.000   0.000   0.000
 20        0.000   0.000   0.000   0.000
 21        0.000   0.000   0.000   0.000
 22        0.000  -0.000   0.000  -0.000
 23        0.000   0.000   0.000   0.000
 24        0.000  -0.000   0.000  -0.000
 25        0.000   0.000   0.000   0.000
 26        0.000  -0.000   0.000  -0.000
 27        0.000   0.000   0.000   0.000
 28        0.000   0.000   0.000   0.000
------------------------------------------------
tot        0.000   0.000   0.000   0.000
 
    CHARGE:  cpu time    0.1400: real time    0.1419
    FORLOC:  cpu time    0.0020: real time    0.0020
    FORNL :  cpu time    0.6469: real time    0.6790
    STRESS:  cpu time    1.7587: real time    1.7653
    FORCOR:  cpu time    0.0870: real time    0.0881
    FORHAR:  cpu time    0.0110: real time    0.0215
    MIXING:  cpu time    0.0010: real time    0.0006
    OFIELD:  cpu time    0.0000: real time    0.0000

  FORCE on cell =-STRESS in cart. coord.  units (eV):
  Direction    XX          YY          ZZ          XY          YZ          ZX
  --------------------------------------------------------------------------------------
  Alpha Z  1068.18693  1068.18693  1068.18693
  Ewald   -4860.42337 -4775.53690 -2326.80658   230.35343   -71.39836    63.49515
  Hartree   859.84572   907.29736  1959.93116   128.71985   -44.10872    60.60749
  E(xc)    -964.03563  -963.21106  -956.01855     0.50823    -0.20695    -0.04258
  Local     433.34269   317.66527 -3008.16672  -347.94215   117.42697  -130.74108
  n-local  -632.49782  -637.88394  -631.43920     1.46673     0.88943    -1.39180
  augment   437.41779   433.91101   396.52338    -2.09684    -0.23543     1.16265
  Kinetic  3658.08733  3649.48409  3497.77676   -11.04053    -2.36100     6.92185
  Fock        0.00000     0.00000     0.00000     0.00000     0.00000     0.00000
  -------------------------------------------------------------------------------------
  Total      -0.07633    -0.08725    -0.01283    -0.03126     0.00594     0.01167
  in kB      -0.29433    -0.33641    -0.04946    -0.12055     0.02290     0.04499
  external pressure =       -0.23 kB  Pullay stress =        0.00 kB


 VOLUME and BASIS-vectors are now :
 -----------------------------------------------------------------------------
  energy-cutoff  :      400.00
  volume of cell :      415.53
      direct lattice vectors                 reciprocal lattice vectors
     5.405057203 -0.008011215 -0.143354954     0.185144301  0.000408752  0.004968536
    -0.011711870  5.199514114  0.008669431     0.000284416  0.192326344 -0.000024312
    -0.397078281  0.002457570 14.796265350     0.001793621 -0.000108728  0.067632774

  length of vectors
     5.406963861  5.199534532 14.801592668     0.185211408  0.192326556  0.067656641


 FORCES acting on ions
    electron-ion (+dipol)            ewald-force                    non-local-force                 convergence-correction
 -----------------------------------------------------------------------------------------------
   -.445E+01 -.334E+02 -.531E+02   0.326E+01 0.337E+02 0.498E+02   0.121E+01 -.321E+00 0.332E+01   0.215E-03 0.349E-04 0.448E-02
   -.546E+02 0.558E+01 0.414E+02   0.555E+02 -.650E+01 -.394E+02   -.891E+00 0.920E+00 -.205E+01   -.103E-03 -.122E-03 0.299E-02
   0.454E+02 0.872E+02 -.339E+01   -.452E+02 -.851E+02 0.168E+01   -.116E+00 -.212E+01 0.171E+01   0.495E-03 -.206E-03 -.493E-02
   0.771E+01 -.188E+02 0.854E+02   -.642E+01 0.190E+02 -.815E+02   -.127E+01 -.228E+00 -.385E+01   0.470E-04 0.143E-03 -.222E-02
   0.115E+03 0.585E+02 0.210E+02   -.115E+03 -.555E+02 -.205E+02   0.384E+00 -.294E+01 -.470E+00   0.836E-03 -.410E-03 0.197E-02
   -.117E+03 0.783E+02 -.160E+02   0.117E+03 -.745E+02 0.157E+02   -.107E+00 -.375E+01 0.286E+00   -.239E-03 -.287E-03 0.105E-02
   -.396E+02 0.833E+01 -.169E+02   0.398E+02 -.770E+01 0.165E+02   -.229E+00 -.639E+00 0.384E+00   -.231E-03 0.324E-04 0.436E-02
   0.396E+02 -.157E+02 -.684E+01   -.397E+02 0.149E+02 0.721E+01   0.117E+00 0.755E+00 -.381E+00   0.302E-03 -.427E-03 0.440E-02
   0.220E+02 -.481E+02 -.234E+02   -.221E+02 0.459E+02 0.234E+02   0.132E+00 0.219E+01 -.469E-01   -.154E-03 -.201E-03 -.113E-02
   0.232E+02 -.653E+02 0.144E+02   -.236E+02 0.638E+02 -.142E+02   0.363E+00 0.151E+01 -.218E+00   -.782E-03 0.200E-03 -.161E-02
   0.334E+02 0.386E+01 0.163E+02   -.333E+02 -.281E+01 -.162E+02   -.659E-01 -.992E+00 -.160E+00   0.655E-03 0.160E-02 -.464E-02
   -.299E+02 -.329E-01 0.291E+01   0.299E+02 -.729E+00 -.306E+01   0.928E-02 0.757E+00 0.148E+00   -.389E-03 -.584E-03 -.409E-02
   -.117E+03 0.542E+02 -.101E+03   0.135E+03 -.679E+02 0.112E+03   -.180E+02 0.138E+02 -.106E+02   -.820E-03 -.150E-03 -.156E-02
   0.151E+02 -.975E+02 0.692E+02   -.257E+02 0.116E+03 -.759E+02   0.106E+02 -.182E+02 0.670E+01   -.189E-03 0.813E-04 0.311E-03
   -.198E+01 0.598E+02 -.700E+01   0.150E+01 -.662E+02 0.774E+01   0.497E+00 0.640E+01 -.742E+00   0.275E-03 -.183E-03 0.332E-02
   0.251E+02 -.406E+02 -.727E+00   -.235E+02 0.461E+02 0.929E+00   -.160E+01 -.545E+01 -.207E+00   0.383E-03 -.383E-03 0.272E-02
   -.111E+02 0.457E+01 -.955E+01   0.116E+02 -.187E+01 0.976E+01   -.443E+00 -.271E+01 -.218E+00   0.715E-04 0.685E-04 0.341E-02
   0.819E+01 0.260E+01 -.212E+01   -.100E+02 -.518E+01 0.218E+01   0.182E+01 0.258E+01 -.581E-01   -.263E-03 0.283E-03 0.188E-02
   -.153E+02 -.204E+02 -.194E+02   0.172E+02 0.224E+02 0.225E+02   -.187E+01 -.201E+01 -.311E+01   0.199E-03 0.177E-03 0.307E-02
   -.641E+01 -.295E+01 0.623E+01   0.659E+01 0.252E+01 -.122E+02   -.173E+00 0.414E+00 0.593E+01   -.402E-03 -.235E-03 0.257E-02
   0.500E+02 0.991E+02 0.431E+02   -.610E+02 -.115E+03 -.490E+02   0.110E+02 0.160E+02 0.593E+01   0.867E-03 0.836E-03 0.332E-04
   -.159E+02 -.101E+03 -.612E+02   0.252E+02 0.119E+03 0.677E+02   -.933E+01 -.181E+02 -.651E+01   0.218E-03 0.613E-03 0.156E-02
   0.288E+02 -.201E+02 -.754E+01   -.299E+02 0.165E+02 0.666E+01   0.105E+01 0.355E+01 0.881E+00   0.572E-03 0.565E-03 -.379E-02
   0.374E+02 -.351E+01 0.197E+02   -.401E+02 0.555E+01 -.197E+02   0.274E+01 -.204E+01 -.156E-01   0.209E-03 0.893E-04 -.145E-02
   -.216E+02 -.362E+02 -.685E+01   0.203E+02 0.423E+02 0.765E+01   0.134E+01 -.613E+01 -.796E+00   -.499E-03 -.179E-03 -.414E-02
   -.726E+01 0.475E+02 0.115E+02   0.811E+01 -.527E+02 -.121E+02   -.845E+00 0.525E+01 0.551E+00   0.696E-04 0.880E-04 -.209E-02
   0.353E+01 -.226E+01 0.564E+01   -.413E+01 0.342E+01 -.957E+01   0.608E+00 -.118E+01 0.394E+01   -.984E-03 -.110E-02 -.258E-02
   -.782E+01 0.789E+01 -.686E+00   0.882E+01 -.872E+01 0.227E+01   -.987E+00 0.829E+00 -.159E+01   0.447E-03 0.539E-03 -.283E-02
 -----------------------------------------------------------------------------------------------
   0.450E+01 0.118E+02 0.116E+01   0.568E-13 -.888E-13 -.220E-12   -.407E+01 -.119E+02 -.124E+01   0.808E-03 0.881E-03 0.107E-02
 
 
 POSITION                                       TOTAL-FORCE (eV/Angst)
 -----------------------------------------------------------------------------------
      2.44862      0.27726      1.65139        -0.000426     -0.003285      0.000514
      0.49201      2.45553      5.54691        -0.005431     -0.004198     -0.006028
      2.12020      4.95011      9.05621        -0.000587     -0.002589      0.000750
      0.16220      2.78783     13.07556         0.001400     -0.002742      0.002914
      5.12626      0.06966     -0.05996        -0.007574      0.000543     -0.006584
      2.87494      2.81686     14.66627        -0.002108     -0.004783      0.000708
     -0.08379      5.12374      3.75510        -0.000526     -0.004029     -0.003771
      2.97538      2.79919      3.58810        -0.006138      0.001675      0.001421
      3.27223      2.37400      7.28780        -0.002914     -0.003354      0.000528
      4.82119      5.14844      7.32071        -0.002608     -0.003746      0.000576
      2.67717      2.39470     11.01960         0.061577      0.070313     -0.006222
      5.05413      0.10636     11.01890        -0.004095     -0.002286     -0.004824
      5.05431      3.23587      7.55756         0.003100     -0.002560     -0.004398
      1.65292      4.24332     14.37514        -0.000578     -0.003786      0.001152
      5.22341      4.97304      1.75482         0.000012     -0.009003     -0.001443
      3.21835      2.74499      5.45137         0.003402     -0.006790      0.000840
      3.06759      2.93295      1.71309        -0.001726      0.000453      0.001474
      5.07673      5.06835      5.47657        -0.005724      0.003721      0.001137
      1.49005      4.01141      3.79108         0.002578      0.004709      0.013020
      4.12259      1.33525      3.43309        -0.015001     -0.011539     -0.011706
      1.87151      1.09998      7.00467        -0.001358      0.001138      0.004679
      0.85813      1.60612      0.32503        -0.009999      0.003021      0.002979
      2.83839      2.24089      9.13554         0.000846      0.000501      0.001022
      4.84384      0.15959     12.88644         0.006134      0.003678     -0.001322
      4.95145      0.19753      9.14451        -0.004167     -0.007597      0.002132
      2.84723      2.43597     12.87613        -0.000473     -0.010467      0.002336
      3.79365      3.89919     10.90129        -0.004067     -0.003883      0.013150
      1.20041      1.20639     11.13516        -0.003548     -0.003115     -0.005031
 -----------------------------------------------------------------------------------
    total drift:                                0.427726     -0.114319     -0.079948


--------------------------------------------------------------------------------------------------------



  FREE ENERGIE OF THE ION-ELECTRON SYSTEM (eV)
  ---------------------------------------------------
  free  energy   TOTEN  =      -183.35676857 eV

  energy  without entropy=     -183.37744669  energy(sigma->0) =     -183.36193810
 
 d Force = 0.6249841E-05[ 0.478E-05, 0.772E-05]  d Energy = 0.6562552E-05-0.313E-06
 d Force =-0.5295908E-02[-0.530E-02,-0.529E-02]  d Ewald  =-0.1548996E-01 0.102E-01


--------------------------------------------------------------------------------------------------------


    POTLOK:  cpu time    0.0930: real time    0.0933


--------------------------------------------------------------------------------------------------------




--------------------------------------------------------------------------------------------------------


  
 reached required accuracy - stopping structural energy minimisation
     LOOP+:  cpu time   20.1289: real time   20.5307
    4ORBIT:  cpu time    0.0000: real time    0.0000
 


 total charge     
 
# of ion     s       p       d       tot
----------------------------------------
  1        2.004   5.927   0.216   8.147
  2        2.003   5.926   0.215   8.144
  3        2.000   5.911   0.192   8.103
  4        2.004   5.924   0.224   8.152
  5        0.593   0.555   6.977   8.125
  6        0.598   0.548   6.998   8.145
  7        0.603   0.638   7.014   8.254
  8        0.601   0.631   7.002   8.234
  9        0.593   0.618   6.941   8.152
 10        0.577   0.533   7.029   8.139
 11        0.601   0.637   7.000   8.238
 12        0.599   0.633   7.004   8.236
 13        1.604   3.397   0.000   5.001
 14        1.612   3.374   0.000   4.986
 15        1.587   3.489   0.000   5.076
 16        1.583   3.482   0.000   5.065
 17        1.585   3.481   0.000   5.066
 18        1.584   3.475   0.000   5.059
 19        1.577   3.474   0.000   5.051
 20        1.581   3.499   0.000   5.079
 21        1.607   3.389   0.000   4.995
 22        1.608   3.382   0.000   4.991
 23        1.582   3.479   0.000   5.060
 24        1.585   3.477   0.000   5.062
 25        1.584   3.486   0.000   5.071
 26        1.586   3.490   0.000   5.076
 27        1.580   3.488   0.000   5.068
 28        1.578   3.481   0.000   5.059
------------------------------------------------
tot       38.200  83.823  56.812 178.835
 


 magnetization (x)
 
# of ion     s       p       d       tot
----------------------------------------
  1       -0.000  -0.000  -0.000  -0.000
  2        0.000   0.000   0.000   0.000
  3       -0.000   0.000   0.000   0.000
  4       -0.000  -0.000  -0.000  -0.000
  5       -0.000  -0.000  -0.000  -0.000
  6       -0.000  -0.000  -0.000  -0.000
  7        0.000   0.000   0.000   0.000
  8        0.000   0.000   0.000   0.000
  9        0.000   0.000   0.000   0.000
 10        0.000   0.000   0.000   0.000
 11       -0.000  -0.000   0.000   0.000
 12       -0.000  -0.000   0.000   0.000
 13       -0.000   0.000   0.000   0.000
 14        0.000  -0.000   0.000  -0.000
 15        0.000  -0.000   0.000  -0.000
 16       -0.000   0.000   0.000   0.000
 17        0.000  -0.000   0.000  -0.000
 18       -0.000   0.000   0.000   0.000
 19       -0.000   0.000   0.000   0.000
 20        0.000   0.000   0.000   0.000
 21        0.000   0.000   0.000   0.000
 22        0.000  -0.000   0.000  -0.000
 23        0.000   0.000   0.000   0.000
 24        0.000  -0.000   0.000  -0.000
 25        0.000   0.000   0.000   0.000
 26        0.000  -0.000   0.000  -0.000
 27        0.000   0.000   0.000   0.000
 28        0.000   0.000   0.000   0.000
------------------------------------------------
tot        0.000   0.000   0.000   0.000
 

 total amount of memory used by VASP on root node    42218. kBytes
========================================================================

   base      :      30000. kBytes
   nonlr-proj:       1743. kBytes
   fftplans  :        795. kBytes
   grid      :       2102. kBytes
   one-center:         93. kBytes
   wavefun   :       7485. kBytes
 
  
  
 General timing and accounting informations for this job:
 ========================================================
  
                  Total CPU time used (sec):      263.796
                            User time (sec):      262.369
                          System time (sec):        1.427
                         Elapsed time (sec):      269.437
  
                   Maximum memory used (kb):      100304.
                   Average memory used (kb):           0.
  
                          Minor page faults:        26430
                          Major page faults:           37
                 Voluntary context switches:         3234
