SrIr2O4 prototype                       
           1
     5.284542   -0.000015   -0.012971
    -0.000016    5.528411   -0.000011
    -0.036424   -0.000029   14.482281
   Sr   Ir   O 
   4   8  16
Direct configuration=     1
   0.50410800  0.01965300  0.10843000
   0.00410800  0.48034700  0.39157000
   0.50410800  0.98034700  0.60843000
   0.00410800  0.51965300  0.89157000
   0.99902600  0.00000000  0.00000000
   0.49902600  0.50000000  0.00000000
   0.04334900  0.92808300  0.25000000
   0.54334900  0.57191700  0.25000000
   0.49902600  0.50000000  0.50000000
   0.99902600  0.00000000  0.50000000
   0.54334900  0.42808300  0.75000000
   0.04334900  0.07191700  0.75000000
   0.25039100  0.75260900  0.49194500
   0.25039100  0.75260900  0.00805500
   0.98408200  0.04896800  0.14021300
   0.48408200  0.45103200  0.35978700
   0.48408200  0.45103200  0.14021300
   0.98408200  0.04896800  0.35978700
   0.38728400  0.87109600  0.25000000
   0.88728400  0.62890400  0.25000000
   0.25039100  0.24739100  0.50805500
   0.25039100  0.24739100  0.99194500
   0.48408200  0.54896800  0.64021300
   0.98408200  0.95103200  0.85978700
   0.98408200  0.95103200  0.64021300
   0.48408200  0.54896800  0.85978700
   0.88728400  0.37109600  0.75000000
   0.38728400  0.12890400  0.75000000
SrIr2O4 prototype                       
           1
     5.449419   -0.000007   -0.006227
    -0.000008    5.658331   -0.000005
    -0.017486   -0.000014   15.131145
   Sr   Ir   O 
   4   8  16
Direct configuration=     2
   0.50355268  0.01915169  0.10617754
   0.00740766  0.48058532  0.39387177
   0.50355287  0.98084774  0.60617999
   0.00740727  0.51941398  0.89387259
   0.00885137  0.00136600 -0.00033781
   0.48628981  0.50154589  0.00027478
   0.04342343  0.93660915  0.25118788
   0.54126767  0.56489862  0.24885219
   0.48627272  0.49845341  0.50027534
   0.00885971 -0.00136554  0.49966174
   0.54126504  0.43510840  0.74885065
   0.04342171  0.06338890  0.75118681
   0.25101156  0.75127945  0.49125731
   0.25146091  0.75216424  0.00879788
   0.98274006  0.04469380  0.13470166
   0.48812679  0.45514849  0.36494610
   0.48959882  0.45455135  0.13593425
   0.98333261  0.04556354  0.36452432
   0.38307378  0.86940537  0.24999076
   0.88451217  0.62818571  0.24981992
   0.25146453  0.24783803  0.50879858
   0.25100674  0.24871743  0.99125846
   0.48959971  0.54545053  0.63592885
   0.98333452  0.95443700  0.86452165
   0.98274184  0.95530996  0.63470436
   0.48812247  0.54485420  0.86495094
   0.88452243  0.37181073  0.74982055
   0.38306713  0.13058660  0.74999094
SrIr2O4 prototype                       
           1
     5.382078    0.000052   -0.007750
     0.000054    5.723173   -0.000013
    -0.021915   -0.000035   14.766234
   Sr   Ir   O 
   4   8  16
Direct configuration=     3
   0.50386750  0.01942412  0.10744984
   0.00558018  0.48045580  0.39257027
   0.50386757  0.98057564  0.60745091
   0.00558000  0.51954386  0.89257062
   0.00343769  0.00062367 -0.00015189
   0.49330795  0.50070584  0.00012589
   0.04337777  0.93197586  0.25051701
   0.54241922  0.56871256  0.24950142
   0.49330029  0.49929388  0.50012614
   0.00344144 -0.00062349  0.49984791
   0.54241802  0.43129066  0.74950075
   0.04337703  0.06802324  0.75051655
   0.25067223  0.75200196  0.49164536
   0.25086836  0.75240593  0.00837783
   0.98350110  0.04701651  0.13781473
   0.48587752  0.45291148  0.36203061
   0.48657502  0.45263887  0.13834786
   0.98372718  0.04741358  0.36184939
   0.38539417  0.87032410  0.24999805
   0.88604049  0.62857605  0.24992298
   0.25086999  0.24759510  0.50837813
   0.25067006  0.24799662  0.99164587
   0.48657545  0.54736200  0.63834551
   0.98372804  0.95258664  0.86184823
   0.98350187  0.95298524  0.63781590
   0.48587558  0.54708970  0.86203273
   0.88604509  0.37142233  0.74992325
   0.38539118  0.12967225  0.74999814
SrIr2O4 prototype                       
           1
     5.392687    0.000043   -0.007510
     0.000044    5.712957   -0.000011
    -0.021217   -0.000031   14.823721
   Sr   Ir   O 
   4   8  16
Direct configuration=     4
   0.50488397  0.02062499  0.10577052
   0.00744445  0.47949831  0.39445887
   0.50488246  0.97938441  0.60576968
   0.00744563  0.52050863  0.89445474
   0.00139172  0.00078875 -0.00179256
   0.47808827  0.50441610  0.00137014
   0.04761666  0.93904115  0.25128356
   0.54313593  0.56163398  0.24833704
   0.47819766  0.49559275  0.50136827
   0.00132619 -0.00079075  0.49821094
   0.54316895  0.43830112  0.74834045
   0.04761277  0.06092667  0.75128845
   0.25212343  0.75101038  0.49020227
   0.25229694  0.75243986  0.01019837
   0.98102725  0.04555193  0.12776795
   0.49038290  0.45369837  0.37198516
   0.49189419  0.45313567  0.12878414
   0.98101784  0.04633520  0.37178228
   0.38516882  0.87179780  0.25098809
   0.88813766  0.62504408  0.24886245
   0.25230211  0.24756310  0.51019968
   0.25211770  0.24899109  0.99020191
   0.49190455  0.54683775  0.62881484
   0.98100465  0.95363591  0.87182003
   0.98101049  0.95443141  0.62773010
   0.49039614  0.54628733  0.87195381
   0.88801817  0.37503697  0.74886282
   0.38529049  0.12827701  0.75098599
SrIr2O4 prototype                       
           1
     5.492670    0.000399    0.014645
     0.000421    5.890380   -0.000613
     0.039263   -0.001596   14.805135
   Sr   Ir   O 
   4   8  16
Direct configuration=     5
   0.50472208  0.02043796  0.10604160
   0.00714681  0.47964745  0.39415396
   0.50472081  0.97956995  0.60604107
   0.00714777  0.52035837  0.89415055
   0.00171831  0.00076303 -0.00152767
   0.48051579  0.50383819  0.00116954
   0.04694042  0.93794071  0.25115974
   0.54302176  0.56273650  0.24852500
   0.48060650  0.49616919  0.50116801
   0.00166383 -0.00076470  0.49847524
   0.54304935  0.43720922  0.74852775
   0.04693700  0.06203200  0.75116377
   0.25189215  0.75116482  0.49043521
   0.25206881  0.75243458  0.00990445
   0.98142331  0.04578004  0.12938987
   0.48966280  0.45357581  0.37037810
   0.49104712  0.45305831  0.13032794
   0.98144856  0.04650315  0.37017884
   0.38520462  0.87156826  0.25082827
   0.88780329  0.62559420  0.24903362
   0.25207340  0.24756809  0.50990560
   0.25188700  0.24883620  0.99043499
   0.49105589  0.54691942  0.63035330
   0.98143761  0.95347247  0.87021030
   0.98140936  0.95420616  0.62935831
   0.48967362  0.54641231  0.87035215
   0.88770360  0.37447398  0.74903397
   0.38530640  0.12849432  0.75082652
SrIr2O4 prototype                       
           1
     5.448286    0.000241    0.004810
     0.000254    5.811620   -0.000346
     0.012415   -0.000901   14.813386
   Sr   Ir   O 
   4   8  16
Direct configuration=     6
   0.50701231  0.02195611  0.10526829
   0.00326381  0.47866052  0.39516694
   0.50704914  0.97820351  0.60526206
   0.00324588  0.52131287  0.89517074
  -0.00898977  0.00736588 -0.00285346
   0.48816864  0.50207927  0.00074372
   0.03889768  0.94631027  0.25212033
   0.53854483  0.55769450  0.24958676
   0.48701198  0.49781641  0.50076669
  -0.00961233 -0.00706372  0.49730475
   0.53805574  0.44195859  0.74973484
   0.03808465  0.05381131  0.75224838
   0.25199621  0.75466509  0.48864218
   0.24978921  0.75832267  0.01231505
   0.98007583  0.04208245  0.12531114
   0.49622371  0.45549712  0.37403393
   0.49707730  0.45512016  0.12619869
   0.97900429  0.04283227  0.37353139
   0.39173803  0.86934463  0.25208099
   0.89335357  0.62600281  0.24762899
   0.24979220  0.24167772  0.51231371
   0.25199534  0.24531655  0.98863935
   0.49709937  0.54483093  0.62621240
   0.97900006  0.95714162  0.87353577
   0.98007518  0.95789195  0.62529402
   0.49622648  0.54448164  0.87402614
   0.89332815  0.37401855  0.74763003
   0.39178054  0.13066831  0.75208618
SrIr2O4 prototype                       
           1
     5.453342    0.000685    0.014390
     0.000726    5.822060    0.000759
     0.038526    0.001911   14.753639
   Sr   Ir   O 
   4   8  16
Direct configuration=     7
   0.50601041  0.02130264  0.10561348
   0.00496108  0.47908521  0.39471417
   0.50603052  0.97879197  0.60560986
   0.00495148  0.52090169  0.89471471
  -0.00432910  0.00452296 -0.00227132
   0.48483112  0.50283681  0.00093804
   0.04240794  0.94270651  0.25168795
   0.54050108  0.55986504  0.24911199
   0.48421833  0.49710743  0.50094924
  -0.00470369 -0.00435190  0.49781771
   0.54023818  0.43991352  0.74919496
   0.04194788  0.05735028  0.75176063
   0.25194219  0.75315830  0.48943914
   0.25079470  0.75578726  0.01124200
   0.98064305  0.04367486  0.12712321
   0.49338217  0.45466966  0.37241328
   0.49442899  0.45423310  0.12803796
   0.98008589  0.04441227  0.37203973
   0.38889660  0.87030202  0.25152852
   0.89092770  0.62582720  0.24825694
   0.25079804  0.24421342  0.51124198
   0.25193923  0.24683212  0.98943760
   0.49444508  0.54573076  0.62805692
   0.98007881  0.95556145  0.87205603
   0.98063689  0.95630552  0.62709955
   0.49338843  0.54531261  0.87239748
   0.89086989  0.37421494  0.74825775
   0.38896511  0.12973234  0.75153050
SrIr2O4 prototype                       
           1
     5.455314    0.000858    0.018125
     0.000910    5.826130    0.001190
     0.048707    0.003008   14.730342
   Sr   Ir   O 
   4   8  16
Direct configuration=     8
   0.50544807  0.02150059  0.10507592
   0.00159596  0.47850913  0.39550807
   0.50541893  0.97870200  0.60506194
   0.00169543  0.52155757  0.89552548
  -0.00778146  0.00584447 -0.00153779
   0.49217379  0.50274889  0.00155443
   0.03692039  0.94233039  0.25107334
   0.54190181  0.56076445  0.24801625
   0.48599168  0.49687753  0.50202828
  -0.00839779 -0.00784549  0.49724630
   0.54361493  0.44164075  0.74767264
   0.03869194  0.05704679  0.75154750
   0.25203100  0.75468842  0.48833160
   0.24991941  0.75820822  0.01271692
   0.97931223  0.03946293  0.12750613
   0.49892703  0.45717857  0.37201157
   0.49982463  0.45712146  0.12875553
   0.97750172  0.04081978  0.37141513
   0.38771310  0.86644076  0.25234915
   0.89097472  0.62909447  0.24749222
   0.24990244  0.24175360  0.51272229
   0.25206900  0.24549183  0.98832390
   0.49978183  0.54284596  0.62879737
   0.97747424  0.95918179  0.87139976
   0.97928215  0.96058224  0.62754067
   0.49892952  0.54286184  0.87202548
   0.89083643  0.37102588  0.74748661
   0.38753485  0.13356519  0.75235331
SrIr2O4 prototype                       
           1
     5.443102    0.005785    0.027205
     0.006169    5.825030    0.001901
     0.073062    0.004839   14.747132
   Sr   Ir   O 
   4   8  16
Direct configuration=     9
   0.50523000  0.02157776  0.10486560
   0.00028358  0.47828485  0.39581976
   0.50518171  0.97866710  0.60484759
   0.00042546  0.52181279  0.89584369
  -0.00912778  0.00635879 -0.00124978
   0.49503304  0.50271434  0.00179390
   0.03478384  0.94218428  0.25083412
   0.54244951  0.56111468  0.24758688
   0.48668048  0.49678780  0.50245028
  -0.00983568 -0.00920504  0.49702362
   0.54493318  0.44231321  0.74707575
   0.03742396  0.05692880  0.75146488
   0.25206762  0.75528418  0.48789793
   0.24957559  0.75915025  0.01329450
   0.97879322  0.03782353  0.12765651
   0.50108775  0.45815500  0.37185282
   0.50192510  0.45824538  0.12903501
   0.97649633  0.03942170  0.37117135
   0.38725065  0.86493776  0.25267084
   0.89099437  0.63036630  0.24719273
   0.24955085  0.24079593  0.51330213
   0.25212169  0.24497037  0.98788789
   0.50185952  0.54172284  0.62908599
   0.97646072  0.96059111  0.87114338
   0.97875343  0.96224678  0.62771359
   0.50108889  0.54190786  0.87187851
   0.89082495  0.36978477  0.74718481
   0.38697601  0.13505690  0.75267568
SrIr2O4 prototype                       
           1
     5.441028    0.006622    0.028748
     0.007062    5.824843    0.002021
     0.077200    0.005151   14.749985
   Sr   Ir   O 
   4   8  16
Direct configuration=    10
   0.50284910  0.02120813  0.10400591
  -0.00212934  0.47766012  0.39672349
   0.50319239  0.97915561  0.60412922
  -0.00068534  0.52223673  0.89674214
  -0.00708248  0.00744605 -0.00251854
   0.49884174  0.50295749  0.00192718
   0.03156363  0.94568757  0.25030846
   0.54543812  0.56155470  0.24826324
   0.48809614  0.49739701  0.50206536
  -0.01364205 -0.00988534  0.49827482
   0.54320199  0.44051708  0.74730925
   0.03807735  0.05338948  0.75113048
   0.25306699  0.75526566  0.48691972
   0.24963661  0.75889972  0.01437626
   0.97651356  0.03374366  0.12836694
   0.50685819  0.46093817  0.37178520
   0.50797858  0.46037443  0.12888140
   0.97282935  0.03563753  0.37056764
   0.38262732  0.86139970  0.25344100
   0.89071997  0.63305207  0.24649789
   0.24933258  0.24015093  0.51443407
   0.25281335  0.24539703  0.98695084
   0.50707512  0.54008603  0.62873770
   0.97305605  0.96427545  0.87138877
   0.97671681  0.96636125  0.62806212
   0.50771493  0.53906375  0.87137000
   0.89141969  0.36658234  0.74652157
   0.38320769  0.13944763  0.75333786
SrIr2O4 prototype                       
           1
     5.436879    0.008295    0.031833
     0.008849    5.824470    0.002263
     0.085475    0.005773   14.755689
   Sr   Ir   O 
   4   8  16
Direct configuration=    11
   0.50244442  0.02114571  0.10386028
  -0.00254076  0.47755427  0.39687710
   0.50285414  0.97923894  0.60400752
  -0.00087522  0.52230888  0.89689471
  -0.00673346  0.00763057 -0.00273406
   0.49949009  0.50299825  0.00194940
   0.03101516  0.94628333  0.25021958
   0.54594639  0.56162900  0.24837769
   0.48833736  0.49750034  0.50199989
  -0.01429098 -0.01000045  0.49848754
   0.54290735  0.44021213  0.74734907
   0.03818943  0.05278802  0.75107369
   0.25323789  0.75526242  0.48675362
   0.24964623  0.75885708  0.01455982
   0.97612554  0.03305072  0.12848776
   0.50784028  0.46141025  0.37177309
   0.50900904  0.46073532  0.12885468
   0.97220607  0.03499510  0.37046561
   0.38184012  0.86079916  0.25357220
   0.89067333  0.63350850  0.24638000
   0.24929466  0.24004130  0.51462618
   0.25293176  0.24546948  0.98679176
   0.50796369  0.53980718  0.62867806
   0.97247557  0.96490195  0.87143074
   0.97636911  0.96706063  0.62812145
   0.50884396  0.53857956  0.87128304
   0.89152198  0.36603816  0.74640899
   0.38256485  0.14019419  0.75345059
SrIr2O4 prototype                       
           1
     5.428019    0.017131    0.035205
     0.018312    5.817874    0.002100
     0.094382    0.005473   14.775525
   Sr   Ir   O 
   4   8  16
Direct configuration=    12
   0.50163501  0.02102100  0.10356917
  -0.00336411  0.47734266  0.39718435
   0.50217754  0.97940572  0.60376425
  -0.00125538  0.52245321  0.89719983
  -0.00603488  0.00799953 -0.00316509
   0.50078723  0.50307959  0.00199368
   0.02991775  0.94747504  0.25004194
   0.54696312  0.56177745  0.24860644
   0.48882007  0.49770695  0.50186893
  -0.01558962 -0.01023052  0.49891304
   0.54231787  0.43960228  0.74742876
   0.03841396  0.05158504  0.75096013
   0.25358008  0.75525591  0.48642145
   0.24966519  0.75877179  0.01492687
   0.97534926  0.03166490  0.12872946
   0.50980509  0.46235414  0.37174867
   0.51107067  0.46145683  0.12880102
   0.97095940  0.03371040  0.37026173
   0.38026513  0.85959825  0.25383473
   0.89058005  0.63442141  0.24614425
   0.24921854  0.23982204  0.51501033
   0.25316888  0.24561436  0.98647363
   0.50974168  0.53924922  0.62855862
   0.97131389  0.96615516  0.87151478
   0.97567312  0.96845954  0.62824013
   0.51110318  0.53761085  0.87110891
   0.89172699  0.36494972  0.74618386
   0.38127828  0.14168752  0.75367613
SrIr2O4 prototype                       
           1
     5.424653    0.020487    0.036486
     0.021907    5.815369    0.002039
     0.097765    0.005360   14.783059
   Sr   Ir   O 
   4   8  16
Direct configuration=    13
   0.49892876  0.02128687  0.10309414
  -0.00420714  0.47629788  0.39780067
   0.49944536  0.97938084  0.60339509
  -0.00066368  0.52375734  0.89786335
  -0.00433741  0.00912445 -0.00315598
   0.50024868  0.50289222  0.00220799
   0.02906241  0.94746152  0.24987198
   0.55005152  0.55995171  0.24877503
   0.48782901  0.50058327  0.50193452
  -0.01834905 -0.00833890  0.49895715
   0.54260250  0.43905470  0.74772268
   0.03574613  0.04655822  0.75096848
   0.25478557  0.75508320  0.48565475
   0.25009467  0.75729101  0.01542007
   0.97338691  0.02895881  0.12787050
   0.51478237  0.46444063  0.37207815
   0.51691120  0.46302735  0.12842981
   0.96753081  0.03067575  0.37105106
   0.37528125  0.85719542  0.25424726
   0.89205190  0.63636639  0.24562899
   0.24945807  0.24050002  0.51552988
   0.25435394  0.24708260  0.98576118
   0.51429404  0.53816018  0.62774724
   0.96859644  0.96890645  0.87152934
   0.97378082  0.97142548  0.62838386
   0.51699814  0.53539715  0.87135385
   0.89236726  0.36275424  0.74578573
   0.37825752  0.14472518  0.75409322
SrIr2O4 prototype                       
           1
     5.424412    0.029367    0.034849
     0.031397    5.819356    0.003846
     0.093164    0.010128   14.801657
   Sr   Ir   O 
   4   8  16
Direct configuration=    14
   0.49789915  0.02138954  0.10291416
  -0.00452760  0.47590104  0.39803455
   0.49840601  0.97937296  0.60325528
  -0.00043982  0.52425297  0.89811502
  -0.00369228  0.00955128 -0.00315266
   0.50004376  0.50282128  0.00228933
   0.02873707  0.94745687  0.24980758
   0.55122776  0.55925559  0.24883870
   0.48744997  0.50167773  0.50195950
  -0.01940030 -0.00761790  0.49897414
   0.54271099  0.43884629  0.74783416
   0.03473435  0.04464803  0.75097186
   0.25524485  0.75501681  0.48536378
   0.25025877  0.75672761  0.01560713
   0.97264256  0.02793078  0.12754480
   0.51667463  0.46523127  0.37220272
   0.51913270  0.46362124  0.12828848
   0.96622777  0.02952365  0.37135079
   0.37338623  0.85628450  0.25440419
   0.89261096  0.63710523  0.24543340
   0.24954844  0.24075773  0.51572696
   0.25480432  0.24764028  0.98549080
   0.51602743  0.53774336  0.62743903
   0.96756062  0.96995437  0.87153512
   0.97305874  0.97255454  0.62843857
   0.51924249  0.53455186  0.87144624
   0.89261259  0.36191890  0.74563463
   0.37710585  0.14588218  0.75425173
SrIr2O4 prototype                       
           1
     5.424432    0.028618    0.034987
     0.030597    5.819020    0.003694
     0.093552    0.009726   14.800089
   Sr   Ir   O 
   4   8  16
Direct configuration=    15
   0.49509454  0.02211578  0.10301320
  -0.00449196  0.47516867  0.39848587
   0.49488030  0.97940296  0.60331227
   0.00022398  0.52544139  0.89847034
  -0.00318598  0.00986083 -0.00225440
   0.50002764  0.50560395  0.00269778
   0.02954985  0.94819408  0.24972724
   0.55423398  0.55868968  0.24865467
   0.48643224  0.49974579  0.50146629
  -0.01971170 -0.01080802  0.49867434
   0.54375701  0.44018400  0.74795881
   0.03353768  0.04134679  0.75047744
   0.25547064  0.75589378  0.48473371
   0.25019963  0.75464492  0.01559816
   0.97071316  0.02636845  0.12606830
   0.52039580  0.46688297  0.37292014
   0.52425667  0.46480551  0.12793631
   0.96254938  0.02699893  0.37246865
   0.36898342  0.85441701  0.25445376
   0.89501778  0.63781134  0.24510651
   0.24969151  0.24273901  0.51564111
   0.25582121  0.24958227  0.98497202
   0.51977339  0.53683336  0.62713052
   0.96516759  0.97212086  0.87182167
   0.97095035  0.97473944  0.62801268
   0.52391515  0.53300448  0.87243628
   0.89267596  0.36066090  0.74557464
   0.37335879  0.14755085  0.75444170
SrIr2O4 prototype                       
           1
     5.429486    0.033765    0.030783
     0.036120    5.822140    0.004964
     0.082222    0.013115   14.790804
   Sr   Ir   O 
   4   8  16
Direct configuration=    16
   0.49533114  0.02205423  0.10300490
  -0.00449510  0.47523042  0.39844785
   0.49517760  0.97939998  0.60330750
   0.00016815  0.52534136  0.89844042
  -0.00322870  0.00983487 -0.00233005
   0.50002937  0.50536949  0.00266341
   0.02948143  0.94813206  0.24973400
   0.55398041  0.55873774  0.24867014
   0.48651782  0.49990842  0.50150781
  -0.01968589 -0.01053927  0.49869956
   0.54366899  0.44007142  0.74794832
   0.03363814  0.04162478  0.75051906
   0.25545178  0.75581987  0.48478678
   0.25020431  0.75482041  0.01559890
   0.97087574  0.02649975  0.12619265
   0.52008220  0.46674432  0.37285971
   0.52382478  0.46470635  0.12796593
   0.96285911  0.02721128  0.37237452
   0.36935441  0.85457381  0.25444960
   0.89481495  0.63775213  0.24513402
   0.24967974  0.24257208  0.51564836
   0.25573578  0.24941872  0.98501572
   0.51945739  0.53691051  0.62715645
   0.96536968  0.97193802  0.87179758
   0.97112849  0.97455503  0.62804858
   0.52352083  0.53313554  0.87235285
   0.89267044  0.36076691  0.74557968
   0.37367500  0.14740977  0.75442575
SrIr2O4 prototype                       
           1
     5.430629    0.034929    0.029833
     0.037369    5.822846    0.005251
     0.079659    0.013881   14.788705
   Sr   Ir   O 
   4   8  16
Direct configuration=    17
   0.49302503  0.02286471  0.10329935
  -0.00315288  0.47439252  0.39858921
   0.49189461  0.97899055  0.60356575
   0.00151433  0.52601983  0.89820473
  -0.00344133  0.01125027 -0.00180276
   0.49862868  0.50597663  0.00261123
   0.02712509  0.94939387  0.24972414
   0.55330694  0.56253420  0.24853937
   0.48933453  0.49671598  0.50149202
  -0.02150028 -0.01324812  0.49901981
   0.54466860  0.44101206  0.74814181
   0.03111821  0.04025638  0.75053001
   0.25581251  0.75704154  0.48431988
   0.24996332  0.75259814  0.01523883
   0.96971483  0.02541682  0.12528416
   0.52332889  0.46787000  0.37333910
   0.52864196  0.46535921  0.12774755
   0.95992933  0.02482053  0.37296060
   0.36735469  0.85260473  0.25417097
   0.89811663  0.63709503  0.24497555
   0.25004948  0.24497026  0.51506558
   0.25680875  0.25091172  0.98474104
   0.52257791  0.53583635  0.62706798
   0.96418145  0.97349515  0.87228180
   0.96967449  0.97565760  0.62716190
   0.52757786  0.53182470  0.87355986
   0.89265337  0.36002408  0.74581665
   0.37038099  0.14831527  0.75435385
SrIr2O4 prototype                       
           1
     5.436223    0.035065    0.028479
     0.037543    5.823261    0.006439
     0.076075    0.016933   14.781687
   Sr   Ir   O 
   4   8  16
Direct configuration=    18
   0.49250394  0.02304832  0.10336582
  -0.00284936  0.47420284  0.39862131
   0.49115307  0.97889863  0.60362399
   0.00181822  0.52617295  0.89815147
  -0.00348944  0.01157017 -0.00168347
   0.49831205  0.50611415  0.00259933
   0.02659240  0.94967955  0.24972173
   0.55315385  0.56339247  0.24850966
   0.48997166  0.49599383  0.50148869
  -0.02190946 -0.01386009  0.49909221
   0.54489433  0.44122445  0.74818564
   0.03054918  0.03994757  0.75053235
   0.25589351  0.75731767  0.48421423
   0.24990921  0.75209594  0.01515737
   0.96945235  0.02517240  0.12507853
   0.52406241  0.46812373  0.37344778
   0.52973010  0.46550585  0.12769843
   0.95926820  0.02428065  0.37309309
   0.36690319  0.85216009  0.25410782
   0.89886269  0.63694587  0.24493991
   0.25013220  0.24551233  0.51493369
   0.25705071  0.25124900  0.98467893
   0.52328317  0.53559295  0.62704818
   0.96391285  0.97384728  0.87239127
   0.96934530  0.97590722  0.62696114
   0.52849537  0.53152744  0.87383329
   0.89264979  0.35985615  0.74587028
   0.36963650  0.14852060  0.75433735
SrIr2O4 prototype                       
           1
     5.436428    0.035070    0.028430
     0.037549    5.823276    0.006483
     0.075943    0.017044   14.781430
   Sr   Ir   O 
   4   8  16
Direct configuration=    19
   0.49140230  0.02360021  0.10358025
  -0.00167384  0.47372532  0.39868456
   0.48933320  0.97863788  0.60385875
   0.00265231  0.52663652  0.89791023
  -0.00403701  0.01217763 -0.00175907
   0.49801444  0.50627930  0.00252339
   0.02491734  0.95201889  0.24954088
   0.55229382  0.56465684  0.24856994
   0.49012645  0.49473123  0.50157710
  -0.02329080 -0.01477457  0.49914829
   0.54535255  0.44080557  0.74839396
   0.02873671  0.03851106  0.75031297
   0.25638910  0.75789335  0.48405973
   0.24977959  0.75110087  0.01495337
   0.96913222  0.02470931  0.12495071
   0.52589306  0.46872155  0.37358323
   0.53224066  0.46581444  0.12766547
   0.95797637  0.02303544  0.37326724
   0.36626443  0.85127755  0.25392410
   0.90063837  0.63628645  0.24493583
   0.25046659  0.24685683  0.51455996
   0.25768878  0.25183571  0.98463650
   0.52488546  0.53499411  0.62705990
   0.96371412  0.97461297  0.87270529
   0.96887252  0.97635530  0.62660043
   0.53065302  0.53083557  0.87439036
   0.89273140  0.35962739  0.74609480
   0.36813483  0.14903730  0.75427182
SrIr2O4 prototype                       
           1
     5.441960    0.033344    0.028121
     0.035716    5.825907    0.007428
     0.075185    0.019437   14.776932
   Sr   Ir   O 
   4   8  16
Direct configuration=    20
   0.49136196  0.02362043  0.10358811
  -0.00163079  0.47370781  0.39868688
   0.48926656  0.97862832  0.60386736
   0.00268285  0.52665351  0.89790139
  -0.00405707  0.01219990 -0.00176184
   0.49800354  0.50628535  0.00252061
   0.02485599  0.95210464  0.24953424
   0.55226233  0.56470318  0.24857215
   0.49013212  0.49468495  0.50158035
  -0.02334138 -0.01480809  0.49915035
   0.54536933  0.44079021  0.74840160
   0.02867034  0.03845841  0.75030493
   0.25640724  0.75791445  0.48405406
   0.24977484  0.75106440  0.01494589
   0.96912049  0.02469234  0.12494602
   0.52596010  0.46874346  0.37358820
   0.53233259  0.46582575  0.12766427
   0.95792907  0.02298979  0.37327363
   0.36624104  0.85124520  0.25391736
   0.90070340  0.63626228  0.24493569
   0.25047883  0.24690612  0.51454625
   0.25771215  0.25185721  0.98463495
   0.52494413  0.53497216  0.62706034
   0.96370685  0.97464103  0.87271680
   0.96885520  0.97637173  0.62658720
   0.53073205  0.53081020  0.87441080
   0.89273439  0.35961900  0.74610304
   0.36807984  0.14905625  0.75426941
SrIr2O4 prototype                       
           1
     5.445800    0.032146    0.027908
     0.034444    5.827733    0.008084
     0.074659    0.021098   14.773810
   Sr   Ir   O 
   4   8  16
Direct configuration=    21
   0.49093616  0.02398154  0.10375086
  -0.00097468  0.47362406  0.39865781
   0.48852278  0.97855196  0.60401486
   0.00287131  0.52682665  0.89766130
  -0.00466193  0.01210351 -0.00192933
   0.49826202  0.50668977  0.00246575
   0.02466481  0.95263863  0.24949189
   0.55175023  0.56405243  0.24868938
   0.48980550  0.49395468  0.50190349
  -0.02294360 -0.01381615  0.49898066
   0.54536258  0.44005541  0.74870759
   0.02753760  0.03758481  0.75015207
   0.25676578  0.75810695  0.48405444
   0.24957515  0.75096965  0.01482688
   0.96916752  0.02470317  0.12516654
   0.52660695  0.46905460  0.37349214
   0.53306501  0.46600543  0.12768638
   0.95755631  0.02258818  0.37316825
   0.36608295  0.85117669  0.25377879
   0.90113576  0.63585225  0.24498016
   0.25057522  0.24747877  0.51431861
   0.25786170  0.25191134  0.98468583
   0.52531974  0.53478039  0.62708590
   0.96391987  0.97494826  0.87279423
   0.96883956  0.97647172  0.62654105
   0.53142942  0.53060765  0.87444591
   0.89269790  0.35973999  0.74624324
   0.36755638  0.14935769  0.75418534
SrIr2O4 prototype                       
           1
     5.453480    0.029750    0.027480
     0.031900    5.831386    0.009396
     0.073607    0.024419   14.767566
   Sr   Ir   O 
   4   8  16
Direct configuration=    22
   0.49064101  0.02423194  0.10386383
  -0.00051976  0.47356609  0.39863764
   0.48800704  0.97849878  0.60411726
   0.00300201  0.52694688  0.89749460
  -0.00508137  0.01203656 -0.00204562
   0.49844133  0.50697041  0.00242764
   0.02453236  0.95300907  0.24946246
   0.55139501  0.56360081  0.24877079
   0.48957888  0.49344789  0.50212787
  -0.02266757 -0.01312782  0.49886281
   0.54535775  0.43954553  0.74892007
   0.02675196  0.03697853  0.75004597
   0.25701443  0.75824057  0.48405470
   0.24943666  0.75090390  0.01474426
   0.96920016  0.02471063  0.12531964
   0.52705552  0.46927062  0.37342543
   0.53357290  0.46613023  0.12770173
   0.95729774  0.02230950  0.37309510
   0.36597330  0.85112916  0.25368258
   0.90143546  0.63556785  0.24501106
   0.25064218  0.24787615  0.51416053
   0.25796541  0.25194890  0.98472116
   0.52558013  0.53464742  0.62710366
   0.96406766  0.97516143  0.87284798
   0.96882874  0.97654110  0.62650900
   0.53191292  0.53046725  0.87447030
   0.89267263  0.35982388  0.74634057
   0.36719348  0.14956674  0.75412695
SrIr2O4 prototype                       
           1
     5.459127    0.027067    0.027086
     0.029056    5.833665    0.008216
     0.072632    0.021414   14.765448
   Sr   Ir   O 
   4   8  16
Direct configuration=    23
   0.49005128  0.02473238  0.10408979
   0.00038940  0.47345040  0.39859731
   0.48697630  0.97839218  0.60432209
   0.00326323  0.52718742  0.89716113
  -0.00591970  0.01190259 -0.00227825
   0.49879983  0.50753162  0.00235140
   0.02426784  0.95374968  0.24940355
   0.55068487  0.56269766  0.24893368
   0.48912577  0.49243438  0.50257678
  -0.02211560 -0.01175143  0.49862701
   0.54534790  0.43852597  0.74934516
   0.02518148  0.03576609  0.74983374
   0.25751144  0.75850784  0.48405521
   0.24915982  0.75077243  0.01457897
   0.96926542  0.02472548  0.12562591
   0.52795213  0.46970275  0.37329200
   0.53458804  0.46637996  0.12773245
   0.95678082  0.02175225  0.37294879
   0.36575412  0.85103414  0.25349012
   0.90203431  0.63499934  0.24507291
   0.25077615  0.24867078  0.51384428
   0.25817271  0.25202404  0.98479184
   0.52610050  0.53438167  0.62713922
   0.96436313  0.97558767  0.87295549
   0.96880713  0.97667983  0.62644488
   0.53287918  0.53018675  0.87451913
   0.89262220  0.35999154  0.74653528
   0.36646829  0.14998458  0.75401011
SrIr2O4 prototype                       
           1
     5.463474    0.025001    0.026783
     0.026867    5.835420    0.007308
     0.071881    0.019100   14.763817
   Sr   Ir   O 
   4   8  16
Direct configuration=    24
   0.48942804  0.02512117  0.10433475
   0.00112157  0.47333615  0.39846823
   0.48620015  0.97799381  0.60466865