SrIr2O4 prototype                       
           1
     5.404879   -0.007517   -0.143302
    -0.011237    5.199492    0.008635
    -0.396931    0.002324   14.795873
   Sr   Ir   O 
   4   8  16
Direct configuration=     1
   0.46166471  0.05398142  0.11604967
   0.11965746  0.47226837  0.37576906
   0.43956066  0.95241905  0.61576092
   0.09613533  0.53590174  0.88432365
   0.94883498  0.01485184  0.00513300
   0.60629817  0.54221812  0.99677062
   0.00523562  0.98531587  0.25326137
   0.56984751  0.53911404  0.24770538
   0.64301397  0.45733773  0.49850540
   0.93109254  0.99137483  0.50320770
   0.55140217  0.46107283  0.74982708
   0.99053650  0.02162308  0.75429353
   0.97464731  0.62359721  0.51985289
   0.37918578  0.81622270  0.97473371
   0.97783429  0.95789167  0.12751131
   0.62406461  0.52871815  0.37416555
   0.57765734  0.56491305  0.12104387
   0.96921081  0.97608482  0.37895014
   0.29634718  0.77182801  0.25863587
   0.78088174  0.25789655  0.23944021
   0.38175113  0.21191478  0.47698162
   0.16115102  0.30913236  0.02334711
   0.57181637  0.43156651  0.62270906
   0.96089741  0.03175429  0.88021648
   0.96224776  0.03917822  0.62732751
   0.59211920  0.46900094  0.87568983
   0.75812912  0.75073013  0.74366294
   0.27806733  0.23209167  0.75512450
SrIr2O4 prototype                       
           1
     5.405051   -0.007993   -0.143353
    -0.011695    5.199513    0.008668
    -0.397073    0.002453   14.796251
   Sr   Ir   O 
   4   8  16
Direct configuration=     2
   0.46169574  0.05398278  0.11605185
   0.11963340  0.47226153  0.37574543
   0.43958815  0.95243152  0.61576298
   0.09618514  0.53590928  0.88433425
   0.94867170  0.01496544  0.00509616
   0.60633268  0.54220394  0.99677485
   0.00528589  0.98531603  0.25324175
   0.56981722  0.53920021  0.24771062
   0.64303449  0.45732268  0.49850497
   0.93112372  0.99137147  0.50320955
   0.55118320  0.46067478  0.74984327
   0.99049668  0.02168060  0.75426585
   0.97470503  0.62360719  0.51983847
   0.37921137  0.81621856  0.97473748
   0.97786458  0.95784009  0.12750819
   0.62412555  0.52868721  0.37416855
   0.57767237  0.56494926  0.12104784
   0.96918879  0.97615208  0.37895386
   0.29640367  0.77190426  0.25867861
   0.78077384  0.25781968  0.23939998
   0.38176970  0.21195860  0.47699680
   0.16109191  0.30919536  0.02335571
   0.57185466  0.43160534  0.62271170
   0.96098425  0.03182058  0.88021489
   0.96224066  0.03913995  0.62733536
   0.59214660  0.46893939  0.87569818
   0.75813316  0.75073886  0.74370543
   0.27807384  0.23210333  0.75510743
SrIr2O4 prototype                       
           1
     5.405057   -0.008011   -0.143355
    -0.011712    5.199514    0.008669
    -0.397078    0.002458   14.796265
   Sr   Ir   O 
   4   8  16
Direct configuration=     3
   0.46166698  0.05398153  0.11604983
   0.11965570  0.47226786  0.37576733
   0.43956267  0.95241996  0.61576107
   0.09613897  0.53590230  0.88432442
   0.94882305  0.01486014  0.00513031
   0.60630069  0.54221709  0.99677093
   0.00523929  0.98531589  0.25325994
   0.56984530  0.53912034  0.24770576
   0.64301547  0.45733663  0.49850537
   0.93109482  0.99137459  0.50320783
   0.55138613  0.46104371  0.74982826
   0.99053359  0.02162728  0.75429151
   0.97465153  0.62359794  0.51985183
   0.37918765  0.81622240  0.97473398
   0.97783650  0.95788790  0.12751109
   0.62406906  0.52871590  0.37416577
   0.57765844  0.56491570  0.12104416
   0.96920921  0.97608974  0.37895042
   0.29635132  0.77183359  0.25863899
   0.78087384  0.25789092  0.23943727
   0.38175249  0.21191799  0.47698273
   0.16114671  0.30913696  0.02334774
   0.57181918  0.43156935  0.62270926
   0.96090376  0.03175915  0.88021636
   0.96224724  0.03917542  0.62732809
   0.59212119  0.46899644  0.87569044
   0.75812942  0.75073077  0.74366605
   0.27806781  0.23209252  0.75512325
SrIr2O4 prototype                       
           1
     5.405057   -0.008011   -0.143355
    -0.011712    5.199514    0.008669
    -0.397078    0.002458   14.796265
   Sr   Ir   O 
   4   8  16
Direct configuration=     4
   0.46166590  0.05398148  0.11604976
   0.11965653  0.47226810  0.37576815
   0.43956171  0.95241953  0.61576100
   0.09613724  0.53590204  0.88432406
   0.94882872  0.01485619  0.00513159
   0.60629949  0.54221758  0.99677078
   0.00523755  0.98531588  0.25326062
   0.56984635  0.53911735  0.24770558
   0.64301476  0.45733716  0.49850539
   0.93109374  0.99137471  0.50320777
   0.55139373  0.46105753  0.74982770
   0.99053497  0.02162528  0.75429247
   0.97464952  0.62359760  0.51985234
   0.37918676  0.81622255  0.97473385
   0.97783545  0.95788969  0.12751120
   0.62406695  0.52871697  0.37416566
   0.57765792  0.56491444  0.12104402
   0.96920997  0.97608740  0.37895029
   0.29634936  0.77183094  0.25863751
   0.78087759  0.25789359  0.23943867
   0.38175184  0.21191647  0.47698221
   0.16114876  0.30913478  0.02334744
   0.57181785  0.43156800  0.62270916
   0.96090074  0.03175684  0.88021642
   0.96224749  0.03917675  0.62732781
   0.59212024  0.46899858  0.87569015
   0.75812928  0.75073046  0.74366457
   0.27806758  0.23209211  0.75512385
