   30   30  901    2
  0.1277691E+02  0.1392900E-08  0.2845900E-09  0.9678000E-09  0.5000000E-15
  1.000000000000000E-004
  CAR 
 unknown system                          
    210     12    136
 
  0.2500000E+00  0.8333333E-01  0.1250000E+00  0.8333333E-01
    1      -17.942476    -17.942476   1.000000   1.000000
    2      -17.802720    -17.802720   1.000000   1.000000
    3      -17.501765    -17.501765   1.000000   1.000000
    4      -17.398453    -17.398453   1.000000   1.000000
    5      -17.365007    -17.365007   1.000000   1.000000
    6      -17.221235    -17.221235   1.000000   1.000000
    7      -17.065614    -17.065614   1.000000   1.000000
    8      -17.026662    -17.026662   1.000000   1.000000
    9      -16.807576    -16.807576   1.000000   1.000000
   10      -16.798116    -16.798116   1.000000   1.000000
   11      -16.243009    -16.243009   1.000000   1.000000
   12      -16.161958    -16.161958   1.000000   1.000000
   13      -16.072883    -16.072883   1.000000   1.000000
   14      -16.025324    -16.025324   1.000000   1.000000
   15      -15.967014    -15.967014   1.000000   1.000000
   16      -15.933876    -15.933876   1.000000   1.000000
   17      -15.880127    -15.880127   1.000000   1.000000
   18      -15.851771    -15.851771   1.000000   1.000000
   19      -15.637670    -15.637670   1.000000   1.000000
   20      -15.619415    -15.619415   1.000000   1.000000
   21       -5.957600     -5.957600   1.000000   1.000000
   22       -5.899033     -5.899033   1.000000   1.000000
   23       -5.756425     -5.756425   1.000000   1.000000
   24       -5.736445     -5.736445   1.000000   1.000000
   25       -5.577280     -5.577280   1.000000   1.000000
   26       -5.530845     -5.530845   1.000000   1.000000
   27       -5.447038     -5.447038   1.000000   1.000000
   28       -5.433019     -5.433019   1.000000   1.000000
   29       -4.919376     -4.919376   1.000000   1.000000
   30       -4.829523     -4.829523   1.000000   1.000000
   31       -4.789433     -4.789433   1.000000   1.000000
   32       -4.762618     -4.762618   1.000000   1.000000
   33       -4.662533     -4.662533   1.000000   1.000000
   34       -4.648608     -4.648608   1.000000   1.000000
   35       -4.610316     -4.610316   1.000000   1.000000
   36       -4.540218     -4.540218   1.000000   1.000000
   37       -4.479399     -4.479399   1.000000   1.000000
   38       -4.426155     -4.426155   1.000000   1.000000
   39       -4.143788     -4.143788   1.000000   1.000000
   40       -4.137329     -4.137329   1.000000   1.000000
   41       -4.038779     -4.038779   1.000000   1.000000
   42       -3.994531     -3.994531   1.000000   1.000000
   43       -3.793984     -3.793984   1.000000   1.000000
   44       -3.732987     -3.732987   1.000000   1.000000
   45       -3.293891     -3.293891   1.000000   1.000000
   46       -3.289586     -3.289586   1.000000   1.000000
   47       -3.071095     -3.071095   1.000000   1.000000
   48       -2.928458     -2.928458   1.000000   1.000000
   49       -2.781170     -2.781170   1.000000   1.000000
   50       -2.733573     -2.733573   1.000000   1.000000
   51       -2.606258     -2.606258   1.000000   1.000000
   52       -2.344035     -2.344035   1.000000   1.000000
   53       -2.323215     -2.323215   1.000000   1.000000
   54       -2.289403     -2.289403   1.000000   1.000000
   55       -2.161302     -2.161302   1.000000   1.000000
   56       -2.061833     -2.061833   1.000000   1.000000
   57       -1.926569     -1.926569   1.000000   1.000000
   58       -1.884895     -1.884895   1.000000   1.000000
   59       -1.779095     -1.779095   1.000000   1.000000
   60       -1.711331     -1.711331   1.000000   1.000000
   61       -1.679738     -1.679738   1.000000   1.000000
   62       -1.573688     -1.573688   1.000000   1.000000
   63       -1.536646     -1.536646   1.000000   1.000000
   64       -1.480818     -1.480818   1.000000   1.000000
   65       -1.411190     -1.411190   1.000000   1.000000
   66       -1.293333     -1.293333   1.000000   1.000000
   67       -1.024526     -1.024526   1.000000   1.000000
   68       -0.915767     -0.915767   1.000000   1.000000
   69       -0.824478     -0.824478   1.000000   1.000000
   70       -0.821983     -0.821983   1.000000   1.000000
   71       -0.675925     -0.675925   1.000000   1.000000
   72       -0.507046     -0.507046   1.000000   1.000000
   73       -0.428783     -0.428783   1.000000   1.000000
   74       -0.330683     -0.330683   1.000000   1.000000
   75       -0.297622     -0.297622   1.000000   1.000000
   76       -0.240137     -0.240137   1.000000   1.000000
   77       -0.039088     -0.039088   1.000000   1.000000
   78        0.191819      0.191819   1.000000   1.000000
   79        0.199517      0.199517   1.000000   1.000000
   80        0.203372      0.203372   1.000000   1.000000
   81        0.963675      0.963675   1.000000   1.000000
   82        1.109325      1.109325   1.000000   1.000000
   83        1.195813      1.195813   1.000000   1.000000
   84        1.199690      1.199690   1.000000   1.000000
   85        1.267587      1.267587   1.000000   1.000000
   86        1.329737      1.329737   1.000000   1.000000
   87        1.439589      1.439589   1.000000   1.000000
   88        1.453680      1.453680   1.000000   1.000000
   89        1.587624      1.587624   1.000000   1.000000
   90        1.597022      1.597022   1.000000   1.000000
   91        1.684313      1.684313   1.000000   1.000000
   92        1.723384      1.723384   1.000000   1.000000
   93        1.770971      1.770971   1.000000   1.000000
   94        1.800839      1.800839   1.000000   1.000000
   95        1.867106      1.867106   1.000000   1.000000
   96        1.942276      1.942276   1.000000   1.000000
   97        1.949052      1.949052   1.000000   1.000000
   98        2.041449      2.041449   1.000000   1.000000
   99        2.293831      2.293831   0.999984   0.999984
  100        2.357827      2.357827   0.999902   0.999902
  101        2.376139      2.376139   0.999843   0.999843
  102        2.412569      2.412569   0.999628   0.999628
  103        2.845170      2.845170   1.039507   1.039507
  104        2.924650      2.924650   0.868381   0.868381
  105        2.965254      2.965254   0.693635   0.693635
  106        3.184387      3.184387  -0.050676  -0.050676
  107        3.217087      3.217087  -0.047943  -0.047943
  108        3.254086      3.254086  -0.032474  -0.032474
  109        3.670391      3.670391   0.000053   0.000053
  110        3.681900      3.681900   0.000039   0.000039
  111        5.030313      5.030313   0.000000   0.000000
  112        5.339648      5.339648   0.000000   0.000000
  113        5.931515      5.931515   0.000000   0.000000
  114        5.955627      5.955627   0.000000   0.000000
  115        6.078852      6.078852   0.000000   0.000000
  116        6.196683      6.196683   0.000000   0.000000
  117        6.226173      6.226173   0.000000   0.000000
  118        6.231825      6.231825   0.000000   0.000000
  119        6.532734      6.532734   0.000000   0.000000
  120        6.538585      6.538585   0.000000   0.000000
  121        6.646109      6.646109   0.000000   0.000000
  122        6.662881      6.662881   0.000000   0.000000
  123        6.772734      6.772734   0.000000   0.000000
  124        6.790832      6.790832   0.000000   0.000000
  125        6.814823      6.814823   0.000000   0.000000
  126        6.877648      6.877648   0.000000   0.000000
  127        6.900791      6.900791   0.000000   0.000000
  128        6.952535      6.952535   0.000000   0.000000
  129        7.509148      7.509148   0.000000   0.000000
  130        7.544308      7.544308   0.000000   0.000000
  131        7.762203      7.762203   0.000000   0.000000
  132        8.224123      8.224123   0.000000   0.000000
  133        9.300082      9.300082   0.000000   0.000000
  134        9.381004      9.381004   0.000000   0.000000
  135        9.997307      9.997307   0.000000   0.000000
  136       10.357895     10.357895   0.000000   0.000000
 
 -0.2500000E+00  0.8333333E-01  0.1250000E+00  0.8333333E-01
    1      -17.942872    -17.942872   1.000000   1.000000
    2      -17.801675    -17.801675   1.000000   1.000000
    3      -17.505816    -17.505816   1.000000   1.000000
    4      -17.397917    -17.397917   1.000000   1.000000
    5      -17.361889    -17.361889   1.000000   1.000000
    6      -17.223716    -17.223716   1.000000   1.000000
    7      -17.053415    -17.053415   1.000000   1.000000
    8      -17.036973    -17.036973   1.000000   1.000000
    9      -16.814472    -16.814472   1.000000   1.000000
   10      -16.793419    -16.793419   1.000000   1.000000
   11      -16.228004    -16.228004   1.000000   1.000000
   12      -16.183071    -16.183071   1.000000   1.000000
   13      -16.077047    -16.077047   1.000000   1.000000
   14      -16.009118    -16.009118   1.000000   1.000000
   15      -15.949684    -15.949684   1.000000   1.000000
   16      -15.949632    -15.949632   1.000000   1.000000
   17      -15.898330    -15.898330   1.000000   1.000000
   18      -15.841105    -15.841105   1.000000   1.000000
   19      -15.637651    -15.637651   1.000000   1.000000
   20      -15.619221    -15.619221   1.000000   1.000000
   21       -5.959367     -5.959367   1.000000   1.000000
   22       -5.897029     -5.897029   1.000000   1.000000
   23       -5.757719     -5.757719   1.000000   1.000000
   24       -5.727878     -5.727878   1.000000   1.000000
   25       -5.601507     -5.601507   1.000000   1.000000
   26       -5.524311     -5.524311   1.000000   1.000000
   27       -5.461212     -5.461212   1.000000   1.000000
   28       -5.404424     -5.404424   1.000000   1.000000
   29       -4.917326     -4.917326   1.000000   1.000000
   30       -4.829305     -4.829305   1.000000   1.000000
   31       -4.791191     -4.791191   1.000000   1.000000
   32       -4.766983     -4.766983   1.000000   1.000000
   33       -4.659390     -4.659390   1.000000   1.000000
   34       -4.658429     -4.658429   1.000000   1.000000
   35       -4.600249     -4.600249   1.000000   1.000000
   36       -4.552284     -4.552284   1.000000   1.000000
   37       -4.497736     -4.497736   1.000000   1.000000
   38       -4.393363     -4.393363   1.000000   1.000000
   39       -4.234158     -4.234158   1.000000   1.000000
   40       -4.059975     -4.059975   1.000000   1.000000
   41       -4.027100     -4.027100   1.000000   1.000000
   42       -3.976950     -3.976950   1.000000   1.000000
   43       -3.787603     -3.787603   1.000000   1.000000
   44       -3.744568     -3.744568   1.000000   1.000000
   45       -3.382835     -3.382835   1.000000   1.000000
   46       -3.162812     -3.162812   1.000000   1.000000
   47       -3.095119     -3.095119   1.000000   1.000000
   48       -3.061065     -3.061065   1.000000   1.000000
   49       -2.676599     -2.676599   1.000000   1.000000
   50       -2.670354     -2.670354   1.000000   1.000000
   51       -2.540883     -2.540883   1.000000   1.000000
   52       -2.487512     -2.487512   1.000000   1.000000
   53       -2.399093     -2.399093   1.000000   1.000000
   54       -2.264259     -2.264259   1.000000   1.000000
   55       -2.112829     -2.112829   1.000000   1.000000
   56       -2.035156     -2.035156   1.000000   1.000000
   57       -1.926745     -1.926745   1.000000   1.000000
   58       -1.876850     -1.876850   1.000000   1.000000
   59       -1.770492     -1.770492   1.000000   1.000000
   60       -1.751310     -1.751310   1.000000   1.000000
   61       -1.692831     -1.692831   1.000000   1.000000
   62       -1.585230     -1.585230   1.000000   1.000000
   63       -1.529007     -1.529007   1.000000   1.000000
   64       -1.451985     -1.451984   1.000000   1.000000
   65       -1.390045     -1.390045   1.000000   1.000000
   66       -1.301349     -1.301349   1.000000   1.000000
   67       -1.099731     -1.099731   1.000000   1.000000
   68       -0.975132     -0.975132   1.000000   1.000000
   69       -0.745682     -0.745682   1.000000   1.000000
   70       -0.702289     -0.702289   1.000000   1.000000
   71       -0.674707     -0.674707   1.000000   1.000000
   72       -0.539696     -0.539696   1.000000   1.000000
   73       -0.440751     -0.440751   1.000000   1.000000
   74       -0.439490     -0.439490   1.000000   1.000000
   75       -0.300518     -0.300518   1.000000   1.000000
   76       -0.176467     -0.176467   1.000000   1.000000
   77       -0.026788     -0.026788   1.000000   1.000000
   78        0.159961      0.159961   1.000000   1.000000
   79        0.204350      0.204350   1.000000   1.000000
   80        0.213615      0.213615   1.000000   1.000000
   81        0.972242      0.972242   1.000000   1.000000
   82        1.146302      1.146302   1.000000   1.000000
   83        1.185381      1.185381   1.000000   1.000000
   84        1.200146      1.200146   1.000000   1.000000
   85        1.229266      1.229266   1.000000   1.000000
   86        1.380756      1.380756   1.000000   1.000000
   87        1.418152      1.418152   1.000000   1.000000
   88        1.444217      1.444217   1.000000   1.000000
   89        1.531052      1.531052   1.000000   1.000000
   90        1.639767      1.639767   1.000000   1.000000
   91        1.655708      1.655708   1.000000   1.000000
   92        1.716391      1.716391   1.000000   1.000000
   93        1.766372      1.766372   1.000000   1.000000
   94        1.821222      1.821222   1.000000   1.000000
   95        1.893730      1.893730   1.000000   1.000000
   96        1.927086      1.927086   1.000000   1.000000
   97        1.972910      1.972910   1.000000   1.000000
   98        2.032997      2.032997   1.000000   1.000000
   99        2.300320      2.300320   0.999981   0.999981
  100        2.341436      2.341436   0.999937   0.999937
  101        2.388113      2.388113   0.999790   0.999790
  102        2.397979      2.397979   0.999734   0.999734
  103        2.837921      2.837921   1.044419   1.044419
  104        2.948554      2.948554   0.771491   0.771491
  105        2.959442      2.959442   0.721529   0.721529
  106        3.166555      3.166555  -0.043654  -0.043654
  107        3.236028      3.236028  -0.040835  -0.040835
  108        3.245153      3.245153  -0.036713  -0.036713
  109        3.671342      3.671342   0.000052   0.000052
  110        3.679421      3.679421   0.000042   0.000042
  111        5.039547      5.039547   0.000000   0.000000
  112        5.327218      5.327218   0.000000   0.000000
  113        5.958805      5.958805   0.000000   0.000000
  114        5.959436      5.959436   0.000000   0.000000
  115        6.042801      6.042801   0.000000   0.000000
  116        6.186437      6.186437   0.000000   0.000000
  117        6.229103      6.229103   0.000000   0.000000
  118        6.231263      6.231263   0.000000   0.000000
  119        6.549128      6.549128   0.000000   0.000000
  120        6.583804      6.583804   0.000000   0.000000
  121        6.620870      6.620870   0.000000   0.000000
  122        6.653107      6.653107   0.000000   0.000000
  123        6.774789      6.774789   0.000000   0.000000
  124        6.788209      6.788209   0.000000   0.000000
  125        6.814719      6.814719   0.000000   0.000000
  126        6.872211      6.872211   0.000000   0.000000
  127        6.878140      6.878140   0.000000   0.000000
  128        6.966388      6.966388   0.000000   0.000000
  129        7.506213      7.506213   0.000000   0.000000
  130        7.536247      7.536247   0.000000   0.000000
  131        7.767667      7.767667   0.000000   0.000000
  132        8.244415      8.244415   0.000000   0.000000
  133        9.357264      9.357264   0.000000   0.000000
  134        9.409887      9.409887   0.000000   0.000000
  135        9.744007      9.744007   0.000000   0.000000
  136       10.203387     10.203387   0.000000   0.000000
 
  0.2500000E+00  0.2500000E+00  0.1250000E+00  0.8333333E-01
    1      -17.521075    -17.521075   1.000000   1.000000
    2      -17.421466    -17.421466   1.000000   1.000000
    3      -17.157588    -17.157588   1.000000   1.000000
    4      -17.092803    -17.092803   1.000000   1.000000
    5      -17.077430    -17.077430   1.000000   1.000000
    6      -16.974449    -16.974449   1.000000   1.000000
    7      -16.825968    -16.825968   1.000000   1.000000
    8      -16.805043    -16.805043   1.000000   1.000000
    9      -16.646906    -16.646906   1.000000   1.000000
   10      -16.595142    -16.595142   1.000000   1.000000
   11      -16.334560    -16.334560   1.000000   1.000000
   12      -16.304830    -16.304830   1.000000   1.000000
   13      -16.170851    -16.170851   1.000000   1.000000
   14      -16.143179    -16.143179   1.000000   1.000000
   15      -16.065934    -16.065934   1.000000   1.000000
   16      -16.037530    -16.037530   1.000000   1.000000
   17      -16.032570    -16.032570   1.000000   1.000000
   18      -16.027517    -16.027517   1.000000   1.000000
   19      -15.822807    -15.822807   1.000000   1.000000
   20      -15.817619    -15.817619   1.000000   1.000000
   21       -5.424331     -5.424331   1.000000   1.000000
   22       -5.396155     -5.396155   1.000000   1.000000
   23       -5.322203     -5.322203   1.000000   1.000000
   24       -5.320706     -5.320706   1.000000   1.000000
   25       -5.168066     -5.168066   1.000000   1.000000
   26       -5.142554     -5.142554   1.000000   1.000000
   27       -5.138074     -5.138074   1.000000   1.000000
   28       -5.124687     -5.124687   1.000000   1.000000
   29       -4.724592     -4.724592   1.000000   1.000000
   30       -4.689644     -4.689644   1.000000   1.000000
   31       -4.675191     -4.675191   1.000000   1.000000
   32       -4.639418     -4.639418   1.000000   1.000000
   33       -4.569872     -4.569872   1.000000   1.000000
   34       -4.478286     -4.478286   1.000000   1.000000
   35       -4.361101     -4.361101   1.000000   1.000000
   36       -4.348561     -4.348561   1.000000   1.000000
   37       -4.236680     -4.236680   1.000000   1.000000
   38       -4.046995     -4.046995   1.000000   1.000000
   39       -4.046195     -4.046195   1.000000   1.000000
   40       -4.021655     -4.021655   1.000000   1.000000
   41       -3.889356     -3.889356   1.000000   1.000000
   42       -3.692288     -3.692288   1.000000   1.000000
   43       -3.635775     -3.635775   1.000000   1.000000
   44       -3.611047     -3.611047   1.000000   1.000000
   45       -3.531264     -3.531264   1.000000   1.000000
   46       -3.451134     -3.451134   1.000000   1.000000
   47       -3.298441     -3.298441   1.000000   1.000000
   48       -3.257697     -3.257697   1.000000   1.000000
   49       -3.229925     -3.229925   1.000000   1.000000
   50       -3.175370     -3.175370   1.000000   1.000000
   51       -2.752243     -2.752243   1.000000   1.000000
   52       -2.712522     -2.712522   1.000000   1.000000
   53       -2.641136     -2.641136   1.000000   1.000000
   54       -2.425303     -2.425303   1.000000   1.000000
   55       -2.401214     -2.401214   1.000000   1.000000
   56       -2.262704     -2.262704   1.000000   1.000000
   57       -2.152674     -2.152674   1.000000   1.000000
   58       -2.126196     -2.126196   1.000000   1.000000
   59       -2.063212     -2.063212   1.000000   1.000000
   60       -1.994364     -1.994364   1.000000   1.000000
   61       -1.881352     -1.881352   1.000000   1.000000
   62       -1.754478     -1.754478   1.000000   1.000000
   63       -1.733438     -1.733438   1.000000   1.000000
   64       -1.671468     -1.671468   1.000000   1.000000
   65       -1.567229     -1.567229   1.000000   1.000000
   66       -1.532134     -1.532134   1.000000   1.000000
   67       -1.456735     -1.456735   1.000000   1.000000
   68       -1.374674     -1.374674   1.000000   1.000000
   69       -1.251499     -1.251499   1.000000   1.000000
   70       -1.229511     -1.229511   1.000000   1.000000
   71       -0.985564     -0.985564   1.000000   1.000000
   72       -0.973975     -0.973975   1.000000   1.000000
   73       -0.892921     -0.892921   1.000000   1.000000
   74       -0.677603     -0.677603   1.000000   1.000000
   75       -0.615534     -0.615534   1.000000   1.000000
   76       -0.525377     -0.525377   1.000000   1.000000
   77       -0.156727     -0.156727   1.000000   1.000000
   78       -0.095835     -0.095835   1.000000   1.000000
   79        0.216615      0.216615   1.000000   1.000000
   80        0.239748      0.239748   1.000000   1.000000
   81        0.818445      0.818445   1.000000   1.000000
   82        1.076107      1.076107   1.000000   1.000000
   83        1.386674      1.386674   1.000000   1.000000
   84        1.537505      1.537505   1.000000   1.000000
   85        1.548884      1.548884   1.000000   1.000000
   86        1.602231      1.602231   1.000000   1.000000
   87        1.703943      1.703943   1.000000   1.000000
   88        1.729756      1.729756   1.000000   1.000000
   89        1.886937      1.886937   1.000000   1.000000
   90        1.992804      1.992804   1.000000   1.000000
   91        2.097176      2.097176   1.000000   1.000000
   92        2.128453      2.128453   1.000000   1.000000
   93        2.146418      2.146418   1.000000   1.000000
   94        2.173087      2.173087   1.000000   1.000000
   95        2.261093      2.261093   0.999994   0.999994
   96        2.318131      2.318131   0.999967   0.999967
   97        2.369486      2.369486   0.999868   0.999868
   98        2.376841      2.376841   0.999841   0.999841
   99        2.503721      2.503721   0.997898   0.997898
  100        2.510405      2.510405   0.997680   0.997680
  101        2.687352      2.687352   1.005837   1.005837
  102        2.725743      2.725743   1.020247   1.020247
  103        2.810064      2.810064   1.051615   1.051615
  104        2.886027      2.886027   0.980693   0.980693
  105        2.967956      2.967956   0.680407   0.680407
  106        3.005663      3.005663   0.485275   0.485275
  107        3.033992      3.033992   0.338490   0.338490
  108        3.111548      3.111548   0.038301   0.038301
  109        3.482510      3.482510   0.002768   0.002768
  110        3.502622      3.502622   0.002084   0.002084
  111        5.313480      5.313480   0.000000   0.000000
  112        5.371207      5.371207   0.000000   0.000000
  113        5.434997      5.434997   0.000000   0.000000
  114        5.528073      5.528073   0.000000   0.000000
  115        5.610578      5.610578   0.000000   0.000000
  116        5.779851      5.779851   0.000000   0.000000
  117        5.791810      5.791810   0.000000   0.000000
  118        5.818302      5.818302   0.000000   0.000000
  119        5.878269      5.878269   0.000000   0.000000
  120        6.042616      6.042616   0.000000   0.000000
  121        6.109064      6.109064   0.000000   0.000000
  122        6.118357      6.118357   0.000000   0.000000
  123        6.374426      6.374426   0.000000   0.000000
  124        6.417186      6.417186   0.000000   0.000000
  125        6.589101      6.589101   0.000000   0.000000
  126        6.693992      6.693992   0.000000   0.000000
  127        6.791670      6.791670   0.000000   0.000000
  128        6.843567      6.843567   0.000000   0.000000
  129        7.133926      7.133926   0.000000   0.000000
  130        7.234352      7.234352   0.000000   0.000000
  131        9.037965      9.037965   0.000000   0.000000
  132        9.540391      9.540391   0.000000   0.000000
  133       10.360302     10.360302   0.000000   0.000000
  134       10.421374     10.421374   0.000000   0.000000
  135       10.801530     10.801530   0.000000   0.000000
  136       11.228247     11.228247   0.000000   0.000000
 
 -0.2500000E+00  0.2500000E+00  0.1250000E+00  0.8333333E-01
    1      -17.521823    -17.521823   1.000000   1.000000
    2      -17.420707    -17.420707   1.000000   1.000000
    3      -17.157004    -17.157004   1.000000   1.000000
    4      -17.094778    -17.094778   1.000000   1.000000
    5      -17.079763    -17.079763   1.000000   1.000000
    6      -16.970217    -16.970217   1.000000   1.000000
    7      -16.827306    -16.827306   1.000000   1.000000
    8      -16.803256    -16.803256   1.000000   1.000000
    9      -16.652590    -16.652590   1.000000   1.000000
   10      -16.590433    -16.590433   1.000000   1.000000
   11      -16.329501    -16.329501   1.000000   1.000000
   12      -16.310956    -16.310956   1.000000   1.000000
   13      -16.175156    -16.175156   1.000000   1.000000
   14      -16.134318    -16.134318   1.000000   1.000000
   15      -16.068316    -16.068316   1.000000   1.000000
   16      -16.045592    -16.045592   1.000000   1.000000
   17      -16.031112    -16.031112   1.000000   1.000000
   18      -16.022750    -16.022750   1.000000   1.000000
   19      -15.822859    -15.822859   1.000000   1.000000
   20      -15.817299    -15.817299   1.000000   1.000000
   21       -5.423522     -5.423522   1.000000   1.000000
   22       -5.403284     -5.403284   1.000000   1.000000
   23       -5.320355     -5.320355   1.000000   1.000000
   24       -5.308212     -5.308212   1.000000   1.000000
   25       -5.179478     -5.179478   1.000000   1.000000
   26       -5.157069     -5.157069   1.000000   1.000000
   27       -5.124292     -5.124292   1.000000   1.000000
   28       -5.121790     -5.121790   1.000000   1.000000
   29       -4.741055     -4.741055   1.000000   1.000000
   30       -4.706044     -4.706044   1.000000   1.000000
   31       -4.666979     -4.666979   1.000000   1.000000
   32       -4.589883     -4.589883   1.000000   1.000000
   33       -4.535954     -4.535954   1.000000   1.000000
   34       -4.503667     -4.503667   1.000000   1.000000
   35       -4.395582     -4.395582   1.000000   1.000000
   36       -4.360607     -4.360607   1.000000   1.000000
   37       -4.186957     -4.186957   1.000000   1.000000
   38       -4.168085     -4.168085   1.000000   1.000000
   39       -4.061937     -4.061937   1.000000   1.000000
   40       -3.973053     -3.973053   1.000000   1.000000
   41       -3.807183     -3.807183   1.000000   1.000000
   42       -3.701224     -3.701224   1.000000   1.000000
   43       -3.611612     -3.611612   1.000000   1.000000
   44       -3.592182     -3.592182   1.000000   1.000000
   45       -3.510259     -3.510259   1.000000   1.000000
   46       -3.447298     -3.447298   1.000000   1.000000
   47       -3.405436     -3.405436   1.000000   1.000000
   48       -3.319813     -3.319813   1.000000   1.000000
   49       -3.233986     -3.233986   1.000000   1.000000
   50       -3.093842     -3.093842   1.000000   1.000000
   51       -2.810373     -2.810373   1.000000   1.000000
   52       -2.705203     -2.705203   1.000000   1.000000
   53       -2.548998     -2.548998   1.000000   1.000000
   54       -2.446747     -2.446747   1.000000   1.000000
   55       -2.375494     -2.375494   1.000000   1.000000
   56       -2.300232     -2.300232   1.000000   1.000000
   57       -2.190175     -2.190175   1.000000   1.000000
   58       -2.101523     -2.101523   1.000000   1.000000
   59       -2.053212     -2.053212   1.000000   1.000000
   60       -1.965436     -1.965436   1.000000   1.000000
   61       -1.919062     -1.919062   1.000000   1.000000
   62       -1.810448     -1.810448   1.000000   1.000000
   63       -1.673500     -1.673500   1.000000   1.000000
   64       -1.651711     -1.651711   1.000000   1.000000
   65       -1.576703     -1.576703   1.000000   1.000000
   66       -1.544179     -1.544179   1.000000   1.000000
   67       -1.449617     -1.449617   1.000000   1.000000
   68       -1.364071     -1.364071   1.000000   1.000000
   69       -1.253148     -1.253148   1.000000   1.000000
   70       -1.175595     -1.175595   1.000000   1.000000
   71       -1.146330     -1.146330   1.000000   1.000000
   72       -0.938223     -0.938223   1.000000   1.000000
   73       -0.830522     -0.830522   1.000000   1.000000
   74       -0.656876     -0.656876   1.000000   1.000000
   75       -0.634097     -0.634097   1.000000   1.000000
   76       -0.520433     -0.520433   1.000000   1.000000
   77       -0.198056     -0.198056   1.000000   1.000000
   78       -0.070869     -0.070869   1.000000   1.000000
   79        0.221999      0.221999   1.000000   1.000000
   80        0.241388      0.241388   1.000000   1.000000
   81        0.834854      0.834854   1.000000   1.000000
   82        1.051959      1.051959   1.000000   1.000000
   83        1.461484      1.461484   1.000000   1.000000
   84        1.474589      1.474589   1.000000   1.000000
   85        1.547777      1.547777   1.000000   1.000000
   86        1.567220      1.567220   1.000000   1.000000
   87        1.617893      1.617893   1.000000   1.000000
   88        1.886191      1.886191   1.000000   1.000000
   89        1.892863      1.892863   1.000000   1.000000
   90        2.009952      2.009952   1.000000   1.000000
   91        2.083841      2.083841   1.000000   1.000000
   92        2.094104      2.094104   1.000000   1.000000
   93        2.121552      2.121552   1.000000   1.000000
   94        2.172986      2.172986   1.000000   1.000000
   95        2.269907      2.269907   0.999992   0.999992
   96        2.317984      2.317984   0.999967   0.999967
   97        2.340847      2.340847   0.999938   0.999938
   98        2.410178      2.410178   0.999647   0.999647
   99        2.463854      2.463854   0.998929   0.998929
  100        2.564731      2.564731   0.995720   0.995720
  101        2.658679      2.658679   0.999288   0.999288