Automatically generated mesh
      12
Reciprocal lattice
    0.25000000000000    0.08333333333333    0.12500000000000             4
   -0.25000000000000    0.08333333333333    0.12500000000000             4
    0.25000000000000    0.25000000000000    0.12500000000000             4
   -0.25000000000000    0.25000000000000    0.12500000000000             4
    0.25000000000000    0.41666666666667    0.12500000000000             4
   -0.25000000000000    0.41666666666667    0.12500000000000             4
    0.25000000000000    0.08333333333333    0.37500000000000             4
   -0.25000000000000    0.08333333333333    0.37500000000000             4
    0.25000000000000    0.25000000000000    0.37500000000000             4
   -0.25000000000000    0.25000000000000    0.37500000000000             4
    0.25000000000000    0.41666666666667    0.37500000000000             4
   -0.25000000000000    0.41666666666667    0.37500000000000             4
