       N       E                     dE             d eps       ncg     rms          rms(c)
DAV:   1     0.218540646716E+04    0.21854E+04   -0.88853E+04  6536   0.123E+03
DAV:   2     0.427357906291E+02   -0.21427E+04   -0.20056E+04  6760   0.407E+02
DAV:   3    -0.223119848277E+03   -0.26586E+03   -0.25385E+03  7840   0.157E+02
DAV:   4    -0.233945249316E+03   -0.10825E+02   -0.10706E+02  8104   0.333E+01
DAV:   5    -0.234236606995E+03   -0.29136E+00   -0.29084E+00  8296   0.499E+00    0.146E+02
RMM:   6    -0.198248235027E+03    0.35988E+02   -0.17115E+02  6531   0.344E+01    0.778E+01
RMM:   7    -0.202576135128E+03   -0.43279E+01   -0.23264E+01  6528   0.148E+01    0.434E+01
RMM:   8    -0.196673754266E+03    0.59024E+01   -0.99480E+00  6528   0.892E+00    0.253E+01
RMM:   9    -0.195660381374E+03    0.10134E+01   -0.67683E+00  6528   0.699E+00    0.187E+01
RMM:  10    -0.194407900612E+03    0.12525E+01   -0.98430E-01  6546   0.279E+00    0.112E+01
RMM:  11    -0.193916853763E+03    0.49105E+00   -0.35922E-01  6540   0.162E+00    0.734E+00
RMM:  12    -0.193887550226E+03    0.29304E-01   -0.22374E-01  6540   0.112E+00    0.449E+00
RMM:  13    -0.194053220039E+03   -0.16567E+00   -0.36803E-02  6796   0.485E-01    0.417E+00
RMM:  14    -0.195170561861E+03   -0.11173E+01   -0.67703E-01  6532   0.186E+00    0.416E+00
RMM:  15    -0.195276598934E+03   -0.10604E+00   -0.79919E-02  6647   0.645E-01    0.967E-01
RMM:  16    -0.195531101577E+03   -0.25450E+00   -0.94417E-02  6531   0.554E-01    0.208E+00
RMM:  17    -0.195586253319E+03   -0.55152E-01   -0.53791E-02  6556   0.417E-01    0.702E-01
RMM:  18    -0.195601562118E+03   -0.15309E-01   -0.14844E-02  6607   0.222E-01    0.404E-01
RMM:  19    -0.195606257307E+03   -0.46952E-02   -0.44824E-03  6600   0.134E-01    0.314E-01
RMM:  20    -0.195607652294E+03   -0.13950E-02   -0.96619E-04  6711   0.791E-02    0.405E-01
RMM:  21    -0.195607576049E+03    0.76245E-04   -0.46493E-04  6529   0.616E-02    0.252E-01
RMM:  22    -0.195607709961E+03   -0.13391E-03   -0.20342E-04  6560   0.414E-02    0.200E-01
RMM:  23    -0.195607795294E+03   -0.85333E-04   -0.14970E-04  6528   0.368E-02    0.111E-01
RMM:  24    -0.195607946415E+03   -0.15112E-03   -0.12049E-04  6528   0.328E-02    0.887E-02
RMM:  25    -0.195608032327E+03   -0.85913E-04   -0.99887E-05  6529   0.289E-02    0.609E-02
RMM:  26    -0.195608104284E+03   -0.71956E-04   -0.14788E-04  6528   0.353E-02    0.314E-02
RMM:  27    -0.195608143707E+03   -0.39423E-04   -0.58416E-05  6531   0.230E-02    0.440E-02
RMM:  28    -0.195608153987E+03   -0.10281E-04   -0.29793E-05  6546   0.147E-02    0.176E-02
RMM:  29    -0.195608164972E+03   -0.10985E-04   -0.14923E-05  6554   0.108E-02    0.159E-02
RMM:  30    -0.195608170532E+03   -0.55602E-05   -0.22381E-05  6528   0.129E-02    0.679E-03
RMM:  31    -0.195608170221E+03    0.31181E-06   -0.29278E-06  6213   0.620E-03    0.879E-03
RMM:  32    -0.195608170775E+03   -0.55434E-06   -0.35114E-06  6418   0.485E-03    0.263E-03
RMM:  33    -0.195608170463E+03    0.31206E-06   -0.66704E-07  5340   0.255E-03    0.138E-03
RMM:  34    -0.195608170434E+03    0.28518E-07   -0.39851E-07  4766   0.166E-03
   1 F= -.19560817E+03 E0= -.19560144E+03  d E =-.195608E+03  mag=     0.0002
       N       E                     dE             d eps       ncg     rms          rms(c)
DAV:   1    -0.305222937578E+03   -0.10961E+03   -0.83118E+03  6840   0.315E+02    0.136E+02
RMM:   2    -0.258938361468E+03    0.46285E+02   -0.59587E+02  6544   0.725E+01    0.129E+02
RMM:   3    -0.203031252382E+03    0.55907E+02   -0.79242E+01  6558   0.252E+01    0.102E+02
RMM:   4    -0.189188041774E+03    0.13843E+02   -0.38639E+01  6556   0.174E+01    0.101E+02
RMM:   5    -0.185155038145E+03    0.40330E+01   -0.28587E+01  7006   0.110E+01    0.781E+01
RMM:   6    -0.194939832867E+03   -0.97848E+01   -0.12561E+01  6529   0.963E+00    0.775E+01
RMM:   7    -0.175855077358E+03    0.19085E+02   -0.20549E+01  6604   0.114E+01    0.540E+01
RMM:   8    -0.163122306636E+03    0.12733E+02   -0.71642E+00  6554   0.729E+00    0.445E+01
RMM:   9    -0.162794672353E+03    0.32763E+00   -0.85149E-01  7613   0.212E+00    0.450E+01
RMM:  10    -0.162251755598E+03    0.54292E+00   -0.16910E+00  6528   0.392E+00    0.330E+01
RMM:  11    -0.162193209042E+03    0.58547E-01   -0.20127E+00  6559   0.364E+00    0.194E+01
RMM:  12    -0.161894894378E+03    0.29831E+00   -0.81420E-01  6533   0.227E+00    0.113E+01
RMM:  13    -0.161029196398E+03    0.86570E+00   -0.11069E+00  6539   0.240E+00    0.876E+00
RMM:  14    -0.160666191839E+03    0.36300E+00   -0.33106E-01  6711   0.165E+00    0.705E+00
RMM:  15    -0.160625367277E+03    0.40825E-01   -0.66963E-02  6880   0.664E-01    0.591E+00
RMM:  16    -0.160541758277E+03    0.83609E-01   -0.59322E-02  6530   0.699E-01    0.449E+00
RMM:  17    -0.160470493622E+03    0.71265E-01   -0.18052E-01  6528   0.124E+00    0.262E+00
RMM:  18    -0.160473818412E+03   -0.33248E-02   -0.21714E-02  6914   0.427E-01    0.234E+00
RMM:  19    -0.160473998757E+03   -0.18035E-03   -0.29204E-02  6528   0.514E-01    0.234E+00
RMM:  20    -0.160461262273E+03    0.12736E-01   -0.14874E-02  6554   0.277E-01    0.155E+00
RMM:  21    -0.160461801104E+03   -0.53883E-03   -0.39414E-03  6528   0.180E-01    0.156E+00
RMM:  22    -0.160460890967E+03    0.91014E-03   -0.14957E-03  6529   0.117E-01    0.112E+00
RMM:  23    -0.160463028192E+03   -0.21372E-02   -0.67475E-03  6578   0.198E-01    0.959E-01
RMM:  24    -0.160463092210E+03   -0.64018E-04   -0.72931E-04  7130   0.763E-02    0.960E-01
RMM:  25    -0.160463194793E+03   -0.10258E-03   -0.46397E-03  6528   0.181E-01    0.621E-01
RMM:  26    -0.160461145032E+03    0.20498E-02   -0.10711E-03  6528   0.101E-01    0.463E-01
RMM:  27    -0.160459370783E+03    0.17742E-02   -0.18664E-03  6541   0.103E-01    0.334E-01
RMM:  28    -0.160459317497E+03    0.53286E-04   -0.43134E-04  6756   0.560E-02    0.232E-01
RMM:  29    -0.160459494287E+03   -0.17679E-03   -0.18862E-04  6575   0.426E-02    0.172E-01
RMM:  30    -0.160459538234E+03   -0.43947E-04   -0.29413E-05  7168   0.165E-02    0.171E-01
RMM:  31    -0.160459499085E+03    0.39150E-04   -0.87532E-05  6528   0.244E-02    0.161E-01
RMM:  32    -0.160459494305E+03    0.47795E-05   -0.18615E-04  6555   0.374E-02    0.158E-01
RMM:  33    -0.160459837923E+03   -0.34362E-03   -0.54617E-04  6594   0.621E-02    0.223E-01
RMM:  34    -0.160460613140E+03   -0.77522E-03   -0.37443E-04  6658   0.539E-02    0.307E-01
RMM:  35    -0.160460670489E+03   -0.57350E-04   -0.70843E-05  6657   0.312E-02    0.316E-01
RMM:  36    -0.160460654448E+03    0.16041E-04   -0.25428E-05  6738   0.144E-02    0.308E-01
RMM:  37    -0.160460735913E+03   -0.81465E-04   -0.21929E-05  6548   0.125E-02    0.300E-01
RMM:  38    -0.160461467515E+03   -0.73160E-03   -0.20338E-04  6528   0.399E-02    0.352E-01
RMM:  39    -0.160462777974E+03   -0.13105E-02   -0.40130E-04  6539   0.515E-02    0.448E-01
RMM:  40    -0.160463779886E+03   -0.10019E-02   -0.21034E-04  6730   0.387E-02    0.514E-01
RMM:  41    -0.160464769988E+03   -0.99010E-03   -0.15996E-04  6660   0.324E-02    0.571E-01
RMM:  42    -0.160465204716E+03   -0.43473E-03   -0.60858E-05  6877   0.225E-02    0.596E-01
RMM:  43    -0.160465514267E+03   -0.30955E-03   -0.27917E-05  6838   0.141E-02    0.612E-01
RMM:  44    -0.160465950022E+03   -0.43576E-03   -0.24668E-05  6623   0.128E-02    0.630E-01
RMM:  45    -0.160465882896E+03    0.67126E-04   -0.49382E-06  6661   0.827E-03    0.633E-01
RMM:  46    -0.160465327069E+03    0.55583E-03   -0.16647E-05  6528   0.128E-02    0.616E-01
RMM:  47    -0.160465095667E+03    0.23140E-03   -0.78839E-06  6525   0.729E-03    0.603E-01
RMM:  48    -0.160464047277E+03    0.10484E-02   -0.88999E-05  6528   0.249E-02    0.560E-01
RMM:  49    -0.160462801262E+03    0.12460E-02   -0.18813E-04  6537   0.348E-02    0.496E-01
RMM:  50    -0.160462029393E+03    0.77187E-03   -0.16173E-04  6689   0.328E-02    0.440E-01
RMM:  51    -0.160462102776E+03   -0.73383E-04   -0.37520E-05  6707   0.216E-02    0.423E-01
RMM:  52    -0.160462094357E+03    0.84187E-05   -0.10118E-05  7241   0.903E-03    0.416E-01
RMM:  53    -0.160462152809E+03   -0.58451E-04   -0.18673E-06  6309   0.465E-03    0.417E-01
RMM:  54    -0.160462355926E+03   -0.20312E-03   -0.61017E-06  6509   0.768E-03    0.425E-01
RMM:  55    -0.160462414119E+03   -0.58192E-04   -0.13998E-06  6255   0.360E-03    0.431E-01
RMM:  56    -0.160462377850E+03    0.36269E-04   -0.40750E-07  5039   0.283E-03    0.430E-01
RMM:  57    -0.160462445879E+03   -0.68029E-04   -0.69990E-07  6032   0.246E-03    0.433E-01
RMM:  58    -0.160462483040E+03   -0.37161E-04   -0.28623E-07  4143   0.153E-03    0.436E-01
RMM:  59    -0.160462332604E+03    0.15044E-03   -0.25021E-06  6391   0.516E-03    0.429E-01
RMM:  60    -0.160461888687E+03    0.44392E-03   -0.24919E-05  6528   0.140E-02    0.407E-01
RMM:  61    -0.160461127738E+03    0.76095E-03   -0.92040E-05  6528   0.260E-02    0.362E-01
RMM:  62    -0.160460310363E+03    0.81737E-03   -0.16942E-04  6538   0.345E-02    0.299E-01
RMM:  63    -0.160459710378E+03    0.59999E-03   -0.19505E-04  6579   0.366E-02    0.231E-01
RMM:  64    -0.160459354849E+03    0.35553E-03   -0.17881E-04  6607   0.354E-02    0.165E-01
RMM:  65    -0.160459358861E+03   -0.40118E-05   -0.64499E-05  6772   0.251E-02    0.132E-01
RMM:  66    -0.160459234855E+03    0.12401E-03   -0.59250E-05  6620   0.192E-02    0.968E-02
RMM:  67    -0.160459216411E+03    0.18445E-04   -0.23896E-05  6815   0.143E-02    0.757E-02
RMM:  68    -0.160459166959E+03    0.49452E-04   -0.28236E-05  6556   0.134E-02    0.514E-02
RMM:  69    -0.160459140583E+03    0.26376E-04   -0.26373E-05  6565   0.139E-02    0.272E-02
RMM:  70    -0.160459148403E+03   -0.78202E-05   -0.92712E-06  6916   0.937E-03    0.148E-02
RMM:  71    -0.160459149894E+03   -0.14911E-05   -0.29862E-06  6861   0.489E-03    0.856E-03
RMM:  72    -0.160459149014E+03    0.88024E-06   -0.26035E-06  6391   0.398E-03    0.315E-03
RMM:  73    -0.160459150586E+03   -0.15724E-05   -0.68647E-07  5891   0.355E-03    0.146E-03
RMM:  74    -0.160459150581E+03    0.48149E-08   -0.60730E-08  3697   0.722E-04
   2 F= -.16045915E+03 E0= -.16044794E+03  d E =0.351490E+02  mag=     0.0001
       N       E                     dE             d eps       ncg     rms          rms(c)
DAV:   1    -0.287768780901E+03   -0.12731E+03   -0.46905E+03  6528   0.254E+02    0.914E+01
RMM:   2    -0.217741503133E+03    0.70027E+02   -0.22645E+02  6528   0.475E+01    0.497E+01
RMM:   3    -0.209876399307E+03    0.78651E+01   -0.11168E+02  6528   0.380E+01    0.300E+01
RMM:   4    -0.209241771730E+03    0.63463E+00   -0.16491E+01  6543   0.119E+01    0.245E+01
RMM:   5    -0.205507892797E+03    0.37339E+01   -0.33856E+00  6528   0.547E+00    0.205E+01
RMM:   6    -0.204001098737E+03    0.15068E+01   -0.13146E+00  6528   0.350E+00    0.135E+01
RMM:   7    -0.202636356729E+03    0.13647E+01   -0.57238E-01  6530   0.202E+00    0.741E+00
RMM:   8    -0.202566413869E+03    0.69943E-01   -0.83273E-02  6894   0.693E-01    0.643E+00
RMM:   9    -0.202573451268E+03   -0.70374E-02   -0.22850E-01  6528   0.121E+00    0.382E+00
RMM:  10    -0.202664842231E+03   -0.91391E-01   -0.17580E-01  6544   0.104E+00    0.641E+00
RMM:  11    -0.202573630760E+03    0.91211E-01   -0.17017E-02  6553   0.424E-01    0.357E+00
RMM:  12    -0.202522652365E+03    0.50978E-01   -0.13027E-02  6528   0.301E-01    0.262E+00
RMM:  13    -0.202496484896E+03    0.26167E-01   -0.13073E-02  6528   0.303E-01    0.126E+00
RMM:  14    -0.202491805407E+03    0.46795E-02   -0.34456E-03  6857   0.143E-01    0.671E-01
RMM:  15    -0.202492473513E+03   -0.66811E-03   -0.77658E-04  6604   0.687E-02    0.474E-01
RMM:  16    -0.202493051044E+03   -0.57753E-03   -0.11937E-03  6528   0.718E-02    0.592E-02
RMM:  17    -0.202493094320E+03   -0.43276E-04   -0.20496E-04  6884   0.340E-02    0.641E-02
RMM:  18    -0.202493067934E+03    0.26386E-04   -0.58856E-05  6535   0.180E-02    0.510E-02
RMM:  19    -0.202493052159E+03    0.15774E-04   -0.14979E-05  6726   0.980E-03    0.476E-02
RMM:  20    -0.202493034114E+03    0.18046E-04   -0.66283E-06  6538   0.672E-03    0.185E-02
RMM:  21    -0.202493030286E+03    0.38280E-05   -0.36059E-06  6582   0.510E-03    0.208E-02
RMM:  22    -0.202493028893E+03    0.13930E-05   -0.88319E-07  5794   0.194E-03    0.111E-02
RMM:  23    -0.202493028126E+03    0.76696E-06   -0.38461E-07  4710   0.155E-03    0.450E-03
RMM:  24    -0.202493028122E+03    0.35670E-08   -0.51776E-08  3892   0.818E-04
   3 F= -.20249303E+03 E0= -.20250113E+03  d E =-.688486E+01  mag=     0.0000
       N       E                     dE             d eps       ncg     rms          rms(c)
DAV:   1    -0.203050980726E+03   -0.55795E+00   -0.16754E+01  6920   0.155E+01    0.566E+00
RMM:   2    -0.202822992791E+03    0.22799E+00   -0.62121E-01  6528   0.261E+00    0.391E+00
RMM:   3    -0.202924943297E+03   -0.10195E+00   -0.40827E-01  6528   0.202E+00    0.460E+00
RMM:   4    -0.202795583536E+03    0.12936E+00   -0.10254E-01  6528   0.101E+00    0.235E+00
RMM:   5    -0.202795873197E+03   -0.28966E-03   -0.56272E-02  6528   0.650E-01    0.201E+00
RMM:   6    -0.202768915042E+03    0.26958E-01   -0.18384E-02  6531   0.396E-01    0.694E-01
RMM:   7    -0.202764441201E+03    0.44738E-02   -0.37364E-03  6544   0.184E-01    0.248E-01
RMM:   8    -0.202764023269E+03    0.41793E-03   -0.12038E-03  6679   0.844E-02    0.124E-01
RMM:   9    -0.202763940018E+03    0.83251E-04   -0.21603E-04  6720   0.410E-02    0.498E-02
RMM:  10    -0.202763928962E+03    0.11056E-04   -0.36086E-05  6894   0.171E-02    0.252E-02
RMM:  11    -0.202763926511E+03    0.24515E-05   -0.65283E-06  6997   0.665E-03    0.158E-02
RMM:  12    -0.202763924593E+03    0.19182E-05   -0.29638E-06  6580   0.434E-03    0.693E-03
RMM:  13    -0.202763924062E+03    0.53118E-06   -0.51235E-07  5223   0.176E-03    0.274E-03
RMM:  14    -0.202763923913E+03    0.14885E-06   -0.14115E-07  3995   0.105E-03    0.228E-03
RMM:  15    -0.202763923770E+03    0.14223E-06   -0.11042E-07  3933   0.860E-04    0.111E-03
RMM:  16    -0.202763923735E+03    0.35929E-07   -0.67674E-08  3918   0.740E-04
   4 F= -.20276392E+03 E0= -.20277109E+03  d E =-.715575E+01  mag=    -0.0000
       N       E                     dE             d eps       ncg     rms          rms(c)
DAV:   1    -0.202796710138E+03   -0.32786E-01   -0.11436E+00  6912   0.404E+00    0.152E+00
RMM:   2    -0.202781225974E+03    0.15484E-01   -0.41534E-02  6528   0.679E-01    0.106E+00
RMM:   3    -0.202790339128E+03   -0.91132E-02   -0.27942E-02  6528   0.526E-01    0.138E+00
RMM:   4    -0.202780768293E+03    0.95708E-02   -0.81365E-03  6528   0.283E-01    0.768E-01
RMM:   5    -0.202779480444E+03    0.12878E-02   -0.43501E-03  6528   0.182E-01    0.553E-01
RMM:   6    -0.202777503254E+03    0.19772E-02   -0.15111E-03  6528   0.114E-01    0.167E-01
RMM:   7    -0.202777236308E+03    0.26695E-03   -0.30789E-04  6560   0.545E-02    0.625E-02
RMM:   8    -0.202777221416E+03    0.14892E-04   -0.60848E-05  6726   0.199E-02    0.271E-02
RMM:   9    -0.202777219626E+03    0.17898E-05   -0.88823E-06  6709   0.853E-03    0.106E-02
RMM:  10    -0.202777219273E+03    0.35287E-06   -0.11775E-06  6523   0.316E-03    0.501E-03
RMM:  11    -0.202777219441E+03   -0.16819E-06   -0.33527E-07  4542   0.149E-03    0.328E-03
RMM:  12    -0.202777219459E+03   -0.17581E-07   -0.13441E-07  3959   0.104E-03
   5 F= -.20277722E+03 E0= -.20278407E+03  d E =-.716905E+01  mag=    -0.0000
       N       E                     dE             d eps       ncg     rms          rms(c)
DAV:   1    -0.204712681531E+03   -0.19355E+01   -0.28403E+02  6528   0.531E+01    0.981E+00
RMM:   2    -0.205488790419E+03   -0.77611E+00   -0.95870E+00  6528   0.103E+01    0.151E+01
RMM:   3    -0.204060895083E+03    0.14279E+01   -0.90948E-01  6574   0.320E+00    0.560E+00
RMM:   4    -0.203969927353E+03    0.90968E-01   -0.41076E-01  6570   0.166E+00    0.516E+00
RMM:   5    -0.203954525117E+03    0.15402E-01   -0.32491E-01  6534   0.156E+00    0.608E+00
RMM:   6    -0.203786098866E+03    0.16843E+00   -0.12477E-01  6528   0.968E-01    0.149E+00
RMM:   7    -0.203759637335E+03    0.26462E-01   -0.40449E-02  6700   0.509E-01    0.557E-01
RMM:   8    -0.203759158267E+03    0.47907E-03   -0.47773E-03  6680   0.241E-01    0.308E-01
RMM:   9    -0.203760534264E+03   -0.13760E-02   -0.11002E-03  6740   0.810E-02    0.222E-01
RMM:  10    -0.203761254417E+03   -0.72015E-03   -0.80749E-04  6528   0.783E-02    0.482E-02
RMM:  11    -0.203761207989E+03    0.46428E-04   -0.11278E-04  7046   0.252E-02    0.244E-02
RMM:  12    -0.203761149201E+03    0.58788E-04   -0.37211E-05  6536   0.136E-02    0.137E-02
RMM:  13    -0.203761120097E+03    0.29104E-04   -0.15439E-05  6560   0.877E-03    0.736E-03
RMM:  14    -0.203761111788E+03    0.83092E-05   -0.63403E-06  6536   0.571E-03    0.366E-03
RMM:  15    -0.203761110869E+03    0.91874E-06   -0.15692E-06  6186   0.259E-03    0.210E-03
RMM:  16    -0.203761110786E+03    0.83230E-07   -0.20047E-07  4224   0.108E-03
   6 F= -.20376111E+03 E0= -.20376070E+03  d E =-.983891E+00  mag=    -0.0000
       N       E                     dE             d eps       ncg     rms          rms(c)
DAV:   1    -0.203761653144E+03   -0.54228E-03   -0.70848E-02  6872   0.845E-01    0.156E-01
RMM:   2    -0.203761766742E+03   -0.11360E-03   -0.22678E-03  6528   0.161E-01    0.232E-01
RMM:   3    -0.203761479913E+03    0.28683E-03   -0.21953E-04  6569   0.490E-02    0.103E-01
RMM:   4    -0.203761463790E+03    0.16123E-04   -0.12015E-04  6549   0.284E-02    0.952E-02
RMM:   5    -0.203761456648E+03    0.71419E-05   -0.11625E-04  6528   0.293E-02    0.108E-01
RMM:   6    -0.203761395973E+03    0.60675E-04   -0.36144E-05  6528   0.169E-02    0.196E-02
RMM:   7    -0.203761390168E+03    0.58053E-05   -0.10144E-05  6730   0.798E-03    0.843E-03
RMM:   8    -0.203761389356E+03    0.81205E-06   -0.14256E-06  6325   0.432E-03    0.387E-03
RMM:   9    -0.203761389059E+03    0.29644E-06   -0.15335E-07  4014   0.117E-03    0.303E-03
RMM:  10    -0.203761388838E+03    0.22133E-06   -0.88273E-08  3892   0.970E-04    0.145E-03
RMM:  11    -0.203761388661E+03    0.17671E-06   -0.65633E-08  3847   0.884E-04    0.561E-04
RMM:  12    -0.203761388648E+03    0.13259E-07   -0.23731E-08  3546   0.465E-04
   7 F= -.20376139E+03 E0= -.20376103E+03  d E =-.984169E+00  mag=     0.0000
       N       E                     dE             d eps       ncg     rms          rms(c)
DAV:   1    -0.204298401202E+03   -0.53701E+00   -0.16209E+02  6528   0.393E+01    0.789E+00
RMM:   2    -0.206819720337E+03   -0.25213E+01   -0.65087E+00  6528   0.837E+00    0.170E+01
RMM:   3    -0.204242798270E+03    0.25769E+01   -0.96200E-01  6530   0.312E+00    0.346E+00
RMM:   4    -0.204244625704E+03   -0.18274E-02   -0.30139E-01  6546   0.144E+00    0.585E+00
RMM:   5    -0.204116813570E+03    0.12781E+00   -0.47706E-02  6540   0.641E-01    0.238E+00
RMM:   6    -0.204119354445E+03   -0.25409E-02   -0.53288E-02  6584   0.594E-01    0.217E+00
RMM:   7    -0.204097254229E+03    0.22100E-01   -0.24111E-02  6560   0.422E-01    0.841E-01
RMM:   8    -0.204094267417E+03    0.29868E-02   -0.36619E-03  6610   0.196E-01    0.424E-01
RMM:   9    -0.204093503993E+03    0.76342E-03   -0.10564E-03  6655   0.792E-02    0.195E-01
RMM:  10    -0.204093303153E+03    0.20084E-03   -0.33094E-04  6652   0.525E-02    0.100E-01
RMM:  11    -0.204093236826E+03    0.66328E-04   -0.78775E-05  6994   0.192E-02    0.559E-02
RMM:  12    -0.204093200960E+03    0.35865E-04   -0.21422E-05  6576   0.122E-02    0.265E-02
RMM:  13    -0.204093184132E+03    0.16828E-04   -0.14041E-05  6539   0.817E-03    0.668E-03
RMM:  14    -0.204093182278E+03    0.18539E-05   -0.27058E-06  6740   0.374E-03    0.532E-03
RMM:  15    -0.204093181255E+03    0.10237E-05   -0.78913E-07  5682   0.216E-03    0.342E-03
RMM:  16    -0.204093180994E+03    0.26044E-06   -0.32266E-07  4578   0.142E-03    0.199E-03
RMM:  17    -0.204093180973E+03    0.21519E-07   -0.40228E-08  3914   0.602E-04
   8 F= -.20409318E+03 E0= -.20409745E+03  d E =-.331792E+00  mag=     0.0000
       N       E                     dE             d eps       ncg     rms          rms(c)
DAV:   1    -0.204094977669E+03   -0.17967E-02   -0.46321E-01  6720   0.210E+00    0.380E-01
RMM:   2    -0.204100153647E+03   -0.51760E-02   -0.17068E-02  6528   0.435E-01    0.880E-01
RMM:   3    -0.204094652058E+03    0.55016E-02   -0.23707E-03  6530   0.153E-01    0.239E-01
RMM:   4    -0.204094479429E+03    0.17263E-03   -0.40137E-04  6542   0.594E-02    0.143E-01
RMM:   5    -0.204094457980E+03    0.21449E-04   -0.38107E-04  6528   0.530E-02    0.197E-01
RMM:   6    -0.204094278856E+03    0.17912E-03   -0.15707E-04  6528   0.344E-02    0.437E-02
RMM:   7    -0.204094258388E+03    0.20468E-04   -0.33957E-05  6725   0.163E-02    0.134E-02
RMM:   8    -0.204094256413E+03    0.19755E-05   -0.41687E-06  6709   0.607E-03    0.569E-03
RMM:   9    -0.204094255669E+03    0.74386E-06   -0.77190E-07  6049   0.235E-03    0.383E-03
RMM:  10    -0.204094255179E+03    0.49017E-06   -0.23359E-07  4114   0.134E-03    0.179E-03
RMM:  11    -0.204094255037E+03    0.14173E-06   -0.88094E-08  3910   0.913E-04    0.750E-04
RMM:  12    -0.204094254951E+03    0.86020E-07   -0.39242E-08  3848   0.671E-04
   9 F= -.20409425E+03 E0= -.20409818E+03  d E =-.332866E+00  mag=    -0.0000
       N       E                     dE             d eps       ncg     rms          rms(c)
DAV:   1    -0.204166734708E+03   -0.72480E-01   -0.43049E+01  6528   0.196E+01    0.367E+00
RMM:   2    -0.204745055538E+03   -0.57832E+00   -0.15559E+00  6528   0.428E+00    0.722E+00
RMM:   3    -0.204199982613E+03    0.54507E+00   -0.23175E-01  6528   0.145E+00    0.188E+00
RMM:   4    -0.204191916172E+03    0.80664E-02   -0.47993E-02  6560   0.606E-01    0.183E+00
RMM:   5    -0.204180960208E+03    0.10956E-01   -0.19495E-02  6532   0.408E-01    0.120E+00
RMM:   6    -0.204173432783E+03    0.75274E-02   -0.11891E-02  6540   0.300E-01    0.367E-01
RMM:   7    -0.204172658293E+03    0.77449E-03   -0.18935E-03  6677   0.126E-01    0.133E-01
RMM:   8    -0.204172572232E+03    0.86061E-04   -0.55170E-04  6552   0.612E-02    0.106E-01
RMM:   9    -0.204172496912E+03    0.75320E-04   -0.11741E-04  6562   0.327E-02    0.501E-02
RMM:  10    -0.204172487099E+03    0.98132E-05   -0.18254E-05  6683   0.124E-02    0.173E-02
RMM:  11    -0.204172485683E+03    0.14154E-05   -0.41409E-06  6764   0.534E-03    0.678E-03
RMM:  12    -0.204172485431E+03    0.25194E-06   -0.85591E-07  5919   0.263E-03    0.353E-03
RMM:  13    -0.204172485226E+03    0.20565E-06   -0.20427E-07  4152   0.120E-03    0.141E-03
RMM:  14    -0.204172485136E+03    0.89884E-07   -0.93054E-08  3908   0.846E-04
  10 F= -.20417249E+03 E0= -.20417706E+03  d E =-.782302E-01  mag=    -0.0000
       N       E                     dE             d eps       ncg     rms          rms(c)
DAV:   1    -0.204173955824E+03   -0.14706E-02   -0.67250E-01  6592   0.245E+00    0.439E-01
RMM:   2    -0.204181662774E+03   -0.77070E-02   -0.22981E-02  6528   0.522E-01    0.937E-01
RMM:   3    -0.204174663542E+03    0.69992E-02   -0.34115E-03  6532   0.176E-01    0.284E-01
RMM:   4    -0.204174405981E+03    0.25756E-03   -0.65289E-04  6534   0.783E-02    0.229E-01
RMM:   5    -0.204174161645E+03    0.24434E-03   -0.31472E-04  6530   0.513E-02    0.121E-01
RMM:   6    -0.204174080927E+03    0.80718E-04   -0.15359E-04  6551   0.334E-02    0.332E-02
RMM:   7    -0.204174072500E+03    0.84273E-05   -0.22309E-05  6791   0.143E-02    0.123E-02
RMM:   8    -0.204174071513E+03    0.98661E-06   -0.51463E-06  6569   0.586E-03    0.699E-03
RMM:   9    -0.204174071341E+03    0.17245E-06   -0.99786E-07  6261   0.332E-03    0.370E-03
RMM:  10    -0.204174071514E+03   -0.17295E-06   -0.16958E-07  4032   0.120E-03    0.230E-03
RMM:  11    -0.204174071498E+03    0.15771E-07   -0.58471E-08  3892   0.931E-04
  11 F= -.20417407E+03 E0= -.20417858E+03  d E =-.798165E-01  mag=    -0.0000
       N       E                     dE             d eps       ncg     rms          rms(c)
DAV:   1    -0.204188017985E+03   -0.13946E-01   -0.29260E+01  6528   0.169E+01    0.219E+00
RMM:   2    -0.204256186109E+03   -0.68168E-01   -0.78991E-01  6528   0.290E+00    0.204E+00
RMM:   3    -0.204243445153E+03    0.12741E-01   -0.58310E-02  6687   0.778E-01    0.200E+00
RMM:   4    -0.204221591216E+03    0.21854E-01   -0.18899E-02  6540   0.407E-01    0.684E-01
RMM:   5    -0.204224265456E+03   -0.26742E-02   -0.88545E-03  6534   0.276E-01    0.737E-01
RMM:   6    -0.204220496205E+03    0.37693E-02   -0.29373E-03  6528   0.151E-01    0.214E-01
RMM:   7    -0.204220134890E+03    0.36131E-03   -0.47638E-04  6613   0.616E-02    0.745E-02
RMM:   8    -0.204220092070E+03    0.42820E-04   -0.11469E-04  6688   0.347E-02    0.416E-02
RMM:   9    -0.204220086376E+03    0.56936E-05   -0.18362E-05  6723   0.126E-02    0.151E-02
RMM:  10    -0.204220085997E+03    0.37876E-06   -0.40546E-06  6974   0.502E-03    0.996E-03
RMM:  11    -0.204220085467E+03    0.53052E-06   -0.87217E-07  6109   0.247E-03    0.385E-03
RMM:  12    -0.204220085269E+03    0.19759E-06   -0.19633E-07  4144   0.132E-03    0.148E-03
RMM:  13    -0.204220085225E+03    0.43616E-07   -0.78290E-08  3910   0.793E-04
  12 F= -.20422009E+03 E0= -.20422417E+03  d E =-.460137E-01  mag=    -0.0000
       N       E                     dE             d eps       ncg     rms          rms(c)
DAV:   1    -0.204220090468E+03   -0.51986E-05   -0.18730E-02  6864   0.428E-01    0.550E-02
RMM:   2    -0.204220135569E+03   -0.45101E-04   -0.49348E-04  6528   0.725E-02    0.541E-02
RMM:   3    -0.204220125971E+03    0.95981E-05   -0.36459E-05  6685   0.196E-02    0.500E-02
RMM:   4    -0.204220112780E+03    0.13191E-04   -0.12743E-05  6540   0.106E-02    0.182E-02
RMM:   5    -0.204220115221E+03   -0.24414E-05   -0.58998E-06  6542   0.728E-03    0.180E-02
RMM:   6    -0.204220112977E+03    0.22446E-05   -0.20556E-06  6360   0.398E-03    0.588E-03
RMM:   7    -0.204220112820E+03    0.15667E-06   -0.33022E-07  4648   0.184E-03    0.181E-03
RMM:   8    -0.204220112835E+03   -0.15047E-07   -0.73042E-08  3844   0.919E-04
  13 F= -.20422011E+03 E0= -.20422418E+03  d E =-.460413E-01  mag=    -0.0000
       N       E                     dE             d eps       ncg     rms          rms(c)
DAV:   1    -0.204221944485E+03   -0.18317E-02   -0.20880E+01  6528   0.143E+01    0.139E+00
RMM:   2    -0.204259656529E+03   -0.37712E-01   -0.52121E-01  6528   0.238E+00    0.105E+00
RMM:   3    -0.204260927652E+03   -0.12711E-02   -0.28119E-02  6720   0.600E-01    0.975E-01
RMM:   4    -0.204257779578E+03    0.31481E-02   -0.10678E-02  6544   0.302E-01    0.903E-01
RMM:   5    -0.204257043326E+03    0.73625E-03   -0.54841E-03  6538   0.214E-01    0.659E-01
RMM:   6    -0.204254152260E+03    0.28911E-02   -0.19016E-03  6530   0.121E-01    0.198E-01
RMM:   7    -0.204253723725E+03    0.42854E-03   -0.59397E-04  6530   0.678E-02    0.593E-02
RMM:   8    -0.204253698110E+03    0.25615E-04   -0.15049E-04  6629   0.398E-02    0.366E-02
RMM:   9    -0.204253692955E+03    0.51543E-05   -0.18800E-05  7035   0.112E-02    0.185E-02
RMM:  10    -0.204253690776E+03    0.21791E-05   -0.29168E-06  6820   0.465E-03    0.105E-02
RMM:  11    -0.204253690298E+03    0.47794E-06   -0.11467E-06  6574   0.298E-03    0.318E-03
RMM:  12    -0.204253690262E+03    0.35898E-07   -0.17136E-07  3931   0.136E-03
  14 F= -.20425369E+03 E0= -.20425835E+03  d E =-.335774E-01  mag=    -0.0000
       N       E                     dE             d eps       ncg     rms          rms(c)
DAV:   1    -0.204253523087E+03    0.16721E-03   -0.63166E-01  6560   0.249E+00    0.241E-01
RMM:   2    -0.204254644380E+03   -0.11213E-02   -0.15769E-02  6528   0.416E-01    0.186E-01
RMM:   3    -0.204254716303E+03   -0.71923E-04   -0.86306E-04  6741   0.104E-01    0.180E-01
RMM:   4    -0.204254565507E+03    0.15080E-03   -0.30180E-04  6542   0.512E-02    0.147E-01
RMM:   5    -0.204254560055E+03    0.54525E-05   -0.17256E-04  6532   0.381E-02    0.116E-01
RMM:   6    -0.204254466536E+03    0.93518E-04   -0.58798E-05  6528   0.214E-02    0.270E-02
RMM:   7    -0.204254457464E+03    0.90727E-05   -0.15870E-05  6558   0.110E-02    0.925E-03
RMM:   8    -0.204254456560E+03    0.90388E-06   -0.37355E-06  6598   0.640E-03    0.505E-03
RMM:   9    -0.204254456291E+03    0.26832E-06   -0.30192E-07  4474   0.152E-03    0.263E-03
RMM:  10    -0.204254456195E+03    0.96676E-07   -0.60391E-08  3898   0.901E-04
  15 F= -.20425446E+03 E0= -.20425919E+03  d E =-.343434E-01  mag=    -0.0000
       N       E                     dE             d eps       ncg     rms          rms(c)
DAV:   1    -0.204262009233E+03   -0.75529E-02   -0.97912E+00  6528   0.957E+00    0.898E-01
RMM:   2    -0.204284616641E+03   -0.22607E-01   -0.23201E-01  6528   0.165E+00    0.937E-01
RMM:   3    -0.204282525376E+03    0.20913E-02   -0.16397E-02  6832   0.426E-01    0.768E-01
RMM:   4    -0.204278325478E+03    0.41999E-02   -0.26229E-03  6564   0.144E-01    0.289E-01
RMM:   5    -0.204278001621E+03    0.32386E-03   -0.21239E-03  6550   0.118E-01    0.200E-01
RMM:   6    -0.204277917099E+03    0.84522E-04   -0.65036E-04  6528   0.714E-02    0.154E-01
RMM:   7    -0.204277707527E+03    0.20957E-03   -0.19887E-04  6546   0.384E-02    0.479E-02
RMM:   8    -0.204277694094E+03    0.13433E-04   -0.25336E-05  6734   0.143E-02    0.247E-02
RMM:   9    -0.204277692353E+03    0.17416E-05   -0.91923E-06  6550   0.816E-03    0.156E-02
RMM:  10    -0.204277691398E+03    0.95503E-06   -0.18473E-06  6391   0.410E-03    0.465E-03
RMM:  11    -0.204277691380E+03    0.17810E-07   -0.24273E-07  4309   0.137E-03
  16 F= -.20427769E+03 E0= -.20428338E+03  d E =-.232352E-01  mag=    -0.0000
       N       E                     dE             d eps       ncg     rms          rms(c)
DAV:   1    -0.204271668047E+03    0.60234E-02   -0.80060E+00  6528   0.865E+00    0.815E-01
RMM:   2    -0.204290155463E+03   -0.18487E-01   -0.18978E-01  6528   0.149E+00    0.849E-01
RMM:   3    -0.204288455219E+03    0.17002E-02   -0.13457E-02  6837   0.385E-01    0.696E-01
RMM:   4    -0.204284970007E+03    0.34852E-02   -0.21711E-03  6564   0.131E-01    0.261E-01
RMM:   5    -0.204284688065E+03    0.28194E-03   -0.17462E-03  6552   0.106E-01    0.165E-01
RMM:   6    -0.204284628600E+03    0.59465E-04   -0.49831E-04  6532   0.634E-02    0.129E-01
RMM:   7    -0.204284480204E+03    0.14840E-03   -0.14179E-04  6550   0.326E-02    0.432E-02
RMM:   8    -0.204284469983E+03    0.10221E-04   -0.19322E-05  6730   0.122E-02    0.227E-02
RMM:   9    -0.204284468768E+03    0.12148E-05   -0.76269E-06  6546   0.751E-03    0.148E-02
RMM:  10    -0.204284467849E+03    0.91922E-06   -0.16357E-06  6350   0.383E-03    0.408E-03
RMM:  11    -0.204284467837E+03    0.12298E-07   -0.19661E-07  4124   0.127E-03
  17 F= -.20428447E+03 E0= -.20429089E+03  d E =-.300116E-01  mag=    -0.0000
       N       E                     dE             d eps       ncg     rms          rms(c)
DAV:   1    -0.204289286208E+03   -0.48184E-02   -0.69362E+00  6528   0.801E+00    0.838E-01
RMM:   2    -0.204299834597E+03   -0.10548E-01   -0.18186E-01  6528   0.148E+00    0.551E-01
RMM:   3    -0.204299950874E+03   -0.11628E-03   -0.12695E-02  6968   0.366E-01    0.588E-01
RMM:   4    -0.204297960456E+03    0.19904E-02   -0.29159E-03  6544   0.150E-01    0.390E-01
RMM:   5    -0.204297264685E+03    0.69577E-03   -0.18097E-03  6580   0.110E-01    0.254E-01
RMM:   6    -0.204297072045E+03    0.19264E-03   -0.84659E-04  6528   0.771E-02    0.160E-01
RMM:   7    -0.204296814331E+03    0.25771E-03   -0.26728E-04  6604   0.426E-02    0.521E-02
RMM:   8    -0.204296789461E+03    0.24869E-04   -0.29227E-05  6630   0.175E-02    0.255E-02
RMM:   9    -0.204296779638E+03    0.98229E-05   -0.11982E-05  6612   0.911E-03    0.155E-02
RMM:  10    -0.204296773390E+03    0.62478E-05   -0.44132E-06  6528   0.664E-03    0.416E-03
RMM:  11    -0.204296771793E+03    0.15975E-05   -0.11203E-06  6105   0.220E-03    0.242E-03
RMM:  12    -0.204296770999E+03    0.79385E-06   -0.21727E-07  4236   0.122E-03    0.140E-03
RMM:  13    -0.204296770230E+03    0.76917E-06   -0.39845E-07  4937   0.133E-03    0.778E-04
RMM:  14    -0.204296770186E+03    0.43992E-07   -0.47294E-08  3896   0.586E-04
  18 F= -.20429677E+03 E0= -.20430293E+03  d E =-.123023E-01  mag=    -0.0000
       N       E                     dE             d eps       ncg     rms          rms(c)
DAV:   1    -0.204296801712E+03   -0.31482E-04   -0.60476E-01  6528   0.236E+00    0.249E-01
RMM:   2    -0.204297714229E+03   -0.91252E-03   -0.15895E-02  6528   0.438E-01    0.160E-01
RMM:   3    -0.204297695385E+03    0.18844E-04   -0.11009E-03  6989   0.107E-01    0.164E-01
RMM:   4    -0.204297565666E+03    0.12972E-03   -0.24662E-04  6548   0.438E-02    0.120E-01
RMM:   5    -0.204297494141E+03    0.71525E-04   -0.15393E-04  6580   0.317E-02    0.699E-02
RMM:   6    -0.204297480208E+03    0.13933E-04   -0.72653E-05  6528   0.226E-02    0.477E-02
RMM:   7    -0.204297457506E+03    0.22702E-04   -0.22065E-05  6608   0.123E-02    0.158E-02
RMM:   8    -0.204297455071E+03    0.24346E-05   -0.24163E-06  6603   0.489E-03    0.765E-03
RMM:   9    -0.204297454067E+03    0.10035E-05   -0.10075E-06  6354   0.266E-03    0.466E-03
RMM:  10    -0.204297453327E+03    0.74050E-06   -0.39506E-07  5032   0.204E-03    0.125E-03
RMM:  11    -0.204297453180E+03    0.14702E-06   -0.82302E-08  3896   0.840E-04    0.882E-04
RMM:  12    -0.204297453041E+03    0.13924E-06   -0.69577E-08  3854   0.654E-04    0.824E-04
RMM:  13    -0.204297453006E+03    0.34375E-07   -0.18479E-08  3404   0.442E-04
  19 F= -.20429745E+03 E0= -.20430351E+03  d E =-.129852E-01  mag=    -0.0000
       N       E                     dE             d eps       ncg     rms          rms(c)
DAV:   1    -0.204301238917E+03   -0.37859E-02   -0.26465E+00  6528   0.485E+00    0.745E-01
RMM:   2    -0.204303913122E+03   -0.26742E-02   -0.74158E-02  6528   0.882E-01    0.485E-01
RMM:   3    -0.204305853676E+03   -0.19406E-02   -0.75679E-03  6680   0.275E-01    0.699E-01
RMM:   4    -0.204302121113E+03    0.37326E-02   -0.31133E-03  6528   0.158E-01    0.246E-01
RMM:   5    -0.204302117501E+03    0.36118E-05   -0.10162E-03  6600   0.947E-02    0.198E-01
RMM:   6    -0.204301921012E+03    0.19649E-03   -0.39013E-04  6548   0.528E-02    0.127E-01
RMM:   7    -0.204301811503E+03    0.10951E-03   -0.98877E-05  6534   0.283E-02    0.336E-02
RMM:   8    -0.204301800023E+03    0.11480E-04   -0.21766E-05  6582   0.147E-02    0.189E-02
RMM:   9    -0.204301797111E+03    0.29120E-05   -0.32326E-06  6861   0.507E-03    0.817E-03
RMM:  10    -0.204301795631E+03    0.14794E-05   -0.89328E-07  6265   0.250E-03    0.278E-03
RMM:  11    -0.204301795307E+03    0.32435E-06   -0.16676E-07  3968   0.114E-03    0.129E-03
RMM:  12    -0.204301795124E+03    0.18353E-06   -0.63337E-08  3902   0.779E-04    0.593E-04
RMM:  13    -0.204301795061E+03    0.62399E-07   -0.33873E-08  3864   0.564E-04
  20 F= -.20430180E+03 E0= -.20430778E+03  d E =-.434205E-02  mag=    -0.0000
       N       E                     dE             d eps       ncg     rms          rms(c)
DAV:   1    -0.204301795025E+03    0.98160E-07   -0.23915E-04  6904   0.460E-02    0.723E-03
RMM:   2    -0.204301795372E+03   -0.34618E-06   -0.67245E-06  6528   0.843E-03    0.469E-03
RMM:   3    -0.204301795631E+03   -0.25892E-06   -0.66404E-07  5844   0.261E-03    0.678E-03
RMM:   4    -0.204301795345E+03    0.28583E-06   -0.27782E-07  4142   0.163E-03    0.221E-03
RMM:   5    -0.204301795386E+03   -0.41608E-07   -0.95882E-08  3474   0.111E-03
  21 F= -.20430180E+03 E0= -.20430778E+03  d E =-.434238E-02  mag=    -0.0000
       N       E                     dE             d eps       ncg     rms          rms(c)
DAV:   1    -0.204303170605E+03   -0.13753E-02   -0.25132E+00  6528   0.484E+00    0.744E-01
RMM:   2    -0.204307448829E+03   -0.42782E-02   -0.70402E-02  6528   0.854E-01    0.658E-01
RMM:   3    -0.204306978868E+03    0.46996E-03   -0.58651E-03  6631   0.250E-01    0.507E-01
RMM:   4    -0.204305290598E+03    0.16883E-02   -0.31008E-03  6528   0.163E-01    0.360E-01
RMM:   5    -0.204305029988E+03    0.26061E-03   -0.14583E-03  6534   0.110E-01    0.270E-01
RMM:   6    -0.204304630246E+03    0.39974E-03   -0.42355E-04  6584   0.559E-02    0.862E-02
RMM:   7    -0.204304560068E+03    0.70179E-04   -0.10638E-04  6548   0.284E-02    0.415E-02
RMM:   8    -0.204304547653E+03    0.12415E-04   -0.33922E-05  6540   0.193E-02    0.167E-02
RMM:   9    -0.204304546681E+03    0.97158E-06   -0.40345E-06  6830   0.602E-03    0.887E-03
RMM:  10    -0.204304547067E+03   -0.38547E-06   -0.10438E-06  6569   0.253E-03    0.471E-03
RMM:  11    -0.204304546964E+03    0.10334E-06   -0.17177E-07  3994   0.125E-03    0.167E-03
RMM:  12    -0.204304546928E+03    0.36014E-07   -0.74407E-08  3898   0.850E-04
  22 F= -.20430455E+03 E0= -.20431045E+03  d E =-.275154E-02  mag=    -0.0000
       N       E                     dE             d eps       ncg     rms          rms(c)
DAV:   1    -0.204304582288E+03   -0.35324E-04   -0.37793E-02  6576   0.594E-01    0.905E-02
RMM:   2    -0.204304644544E+03   -0.62256E-04   -0.10500E-03  6528   0.104E-01    0.806E-02
RMM:   3    -0.204304635387E+03    0.91572E-05   -0.86842E-05  6626   0.304E-02    0.616E-02
RMM:   4    -0.204304611478E+03    0.23908E-04   -0.47491E-05  6528   0.202E-02    0.461E-02
RMM:   5    -0.204304605453E+03    0.60253E-05   -0.21948E-05  6530   0.136E-02    0.324E-02
RMM:   6    -0.204304599379E+03    0.60735E-05   -0.64515E-06  6592   0.688E-03    0.110E-02
RMM:   7    -0.204304597990E+03    0.13893E-05   -0.16521E-06  6448   0.355E-03    0.526E-03
RMM:   8    -0.204304597653E+03    0.33738E-06   -0.50956E-07  5725   0.243E-03    0.217E-03
RMM:   9    -0.204304597524E+03    0.12818E-06   -0.54923E-08  3721   0.802E-04    0.110E-03
RMM:  10    -0.204304597468E+03    0.56427E-07   -0.16783E-08  3565   0.516E-04
  23 F= -.20430460E+03 E0= -.20431052E+03  d E =-.280208E-02  mag=     0.0000
       N       E                     dE             d eps       ncg     rms          rms(c)
DAV:   1    -0.204304823880E+03   -0.22636E-03   -0.11601E+00  6528   0.328E+00    0.356E-01
RMM:   2    -0.204307357849E+03   -0.25340E-02   -0.29292E-02  6528   0.586E-01    0.385E-01
RMM:   3    -0.204306823126E+03    0.53472E-03   -0.19629E-03  6778   0.151E-01    0.300E-01
RMM:   4    -0.204306454828E+03    0.36830E-03   -0.39302E-04  6558   0.550E-02    0.163E-01
RMM:   5    -0.204306438511E+03    0.16318E-04   -0.40117E-04  6592   0.494E-02    0.140E-01
RMM:   6    -0.204306411442E+03    0.27069E-04   -0.26728E-04  6528   0.456E-02    0.103E-01
RMM:   7    -0.204306326038E+03    0.85404E-04   -0.65629E-05  6528   0.230E-02    0.232E-02
RMM:   8    -0.204306321467E+03    0.45712E-05   -0.64714E-06  6822   0.666E-03    0.111E-02
RMM:   9    -0.204306320690E+03    0.77646E-06   -0.25270E-06  6526   0.407E-03    0.766E-03
RMM:  10    -0.204306320367E+03    0.32272E-06   -0.76259E-07  5853   0.271E-03    0.155E-03
RMM:  11    -0.204306320385E+03   -0.17901E-07   -0.81218E-08  3900   0.831E-04
  24 F= -.20430632E+03 E0= -.20431228E+03  d E =-.172292E-02  mag=    -0.0000
       N       E                     dE             d eps       ncg     rms          rms(c)
DAV:   1    -0.204306320436E+03   -0.68141E-07   -0.13497E-02  6720   0.354E-01    0.382E-02
RMM:   2    -0.204306349173E+03   -0.28737E-04   -0.34016E-04  6528   0.632E-02    0.423E-02
RMM:   3    -0.204306342645E+03    0.65277E-05   -0.22814E-05  6782   0.163E-02    0.321E-02
RMM:   4    -0.204306338486E+03    0.41595E-05   -0.45271E-06  6568   0.590E-03    0.177E-02
RMM:   5    -0.204306338388E+03    0.97665E-07   -0.47484E-06  6594   0.539E-03    0.165E-02
RMM:   6    -0.204306337849E+03    0.53904E-06   -0.32851E-06  6528   0.501E-03    0.114E-02
RMM:   7    -0.204306336745E+03    0.11041E-05   -0.88251E-07  5952   0.265E-03    0.237E-03
RMM:   8    -0.204306336695E+03    0.49778E-07   -0.66602E-08  3811   0.850E-04
  25 F= -.20430634E+03 E0= -.20431230E+03  d E =-.173923E-02  mag=    -0.0000
       N       E                     dE             d eps       ncg     rms          rms(c)
DAV:   1    -0.204306972684E+03   -0.63594E-03   -0.27730E-01  6528   0.165E+00    0.197E-01
RMM:   2    -0.204308462666E+03   -0.14900E-02   -0.80717E-03  6528   0.303E-01    0.425E-01
RMM:   3    -0.204307092977E+03    0.13697E-02   -0.63064E-04  6608   0.885E-02    0.939E-02
RMM:   4    -0.204307085649E+03    0.73284E-05   -0.16892E-04  6542   0.378E-02    0.129E-01
RMM:   5    -0.204307007607E+03    0.78042E-04   -0.62480E-05  6528   0.222E-02    0.611E-02
RMM:   6    -0.204306992060E+03    0.15547E-04   -0.53036E-05  6602   0.185E-02    0.324E-02
RMM:   7    -0.204306983538E+03    0.85224E-05   -0.11591E-05  6561   0.102E-02    0.110E-02
RMM:   8    -0.204306983289E+03    0.24846E-06   -0.13115E-06  6637   0.341E-03    0.776E-03
RMM:   9    -0.204306983221E+03    0.68125E-07   -0.21303E-07  4064   0.157E-03
  26 F= -.20430698E+03 E0= -.20431312E+03  d E =-.646526E-03  mag=    -0.0000
       N       E                     dE             d eps       ncg     rms          rms(c)
DAV:   1    -0.204307062889E+03   -0.79600E-04   -0.85403E-02  6544   0.918E-01    0.109E-01
RMM:   2    -0.204307514626E+03   -0.45174E-03   -0.24753E-03  6528   0.168E-01    0.235E-01
RMM:   3    -0.204307100547E+03    0.41408E-03   -0.19167E-04  6610   0.488E-02    0.524E-02
RMM:   4    -0.204307099870E+03    0.67673E-06   -0.53199E-05  6542   0.211E-02    0.733E-02
RMM:   5    -0.204307074196E+03    0.25674E-04   -0.19373E-05  6528   0.124E-02    0.344E-02
RMM:   6    -0.204307069387E+03    0.48095E-05   -0.16417E-05  6602   0.102E-02    0.180E-02
RMM:   7    -0.204307066792E+03    0.25946E-05   -0.36138E-06  6560   0.571E-03    0.625E-03
RMM:   8    -0.204307066734E+03    0.58548E-07   -0.36467E-07  4746   0.190E-03
  27 F= -.20430707E+03 E0= -.20431330E+03  d E =-.730039E-03  mag=    -0.0000
       N       E                     dE             d eps       ncg     rms          rms(c)
DAV:   1    -0.204307548891E+03   -0.48210E-03   -0.13416E-01  6528   0.110E+00    0.129E-01
RMM:   2    -0.204307894141E+03   -0.34525E-03   -0.36592E-03  6528   0.189E-01    0.211E-01
RMM:   3    -0.204307578986E+03    0.31516E-03   -0.26883E-04  6544   0.577E-02    0.662E-02
RMM:   4    -0.204307564378E+03    0.14608E-04   -0.12538E-04  6528   0.325E-02    0.821E-02
RMM:   5    -0.204307541636E+03    0.22742E-04   -0.54158E-05  6534   0.222E-02    0.584E-02
RMM:   6    -0.204307527630E+03    0.14006E-04   -0.28589E-05  6635   0.139E-02    0.208E-02
RMM:   7    -0.204307524903E+03    0.27272E-05   -0.53031E-06  6616   0.676E-03    0.825E-03
RMM:   8    -0.204307524771E+03    0.13172E-06   -0.12369E-06  6446   0.316E-03    0.408E-03
RMM:   9    -0.204307524806E+03   -0.34854E-07   -0.16792E-07  3921   0.148E-03
  28 F= -.20430752E+03 E0= -.20431377E+03  d E =-.458072E-03  mag=    -0.0000
       N       E                     dE             d eps       ncg     rms          rms(c)
DAV:   1    -0.204308005530E+03   -0.48076E-03   -0.59290E-01  6528   0.232E+00    0.273E-01
RMM:   2    -0.204309622788E+03   -0.16173E-02   -0.16278E-02  6528   0.399E-01    0.453E-01
RMM:   3    -0.204308133990E+03    0.14888E-02   -0.12092E-03  6544   0.122E-01    0.138E-01
RMM:   4    -0.204308060994E+03    0.72996E-04   -0.54897E-04  6528   0.684E-02    0.168E-01
RMM:   5    -0.204307969149E+03    0.91845E-04   -0.23600E-04  6536   0.464E-02    0.123E-01
RMM:   6    -0.204307903596E+03    0.65554E-04   -0.12430E-04  6639   0.291E-02    0.428E-02
RMM:   7    -0.204307890520E+03    0.13076E-04   -0.22980E-05  6618   0.140E-02    0.172E-02
RMM:   8    -0.204307889336E+03    0.11842E-05   -0.54292E-06  6586   0.663E-03    0.860E-03
RMM:   9    -0.204307889108E+03    0.22724E-06   -0.88775E-07  6361   0.304E-03    0.502E-03
RMM:  10    -0.204307889214E+03   -0.10584E-06   -0.46737E-07  5245   0.168E-03    0.272E-03
RMM:  11    -0.204307889118E+03    0.96285E-07   -0.90616E-08  3910   0.970E-04
  29 F= -.20430789E+03 E0= -.20431415E+03  d E =-.822384E-03  mag=    -0.0000
       N       E                     dE             d eps       ncg     rms          rms(c)
DAV:   1    -0.204308000505E+03   -0.11129E-03   -0.90287E-02  6528   0.891E-01    0.166E-01
RMM:   2    -0.204308484670E+03   -0.48416E-03   -0.26397E-03  6530   0.171E-01    0.229E-01
RMM:   3    -0.204308146537E+03    0.33813E-03   -0.25555E-04  6592   0.508E-02    0.921E-02
RMM:   4    -0.204308123086E+03    0.23451E-04   -0.10607E-04  6528   0.289E-02    0.649E-02
RMM:   5    -0.204308109732E+03    0.13354E-04   -0.55485E-05  6528   0.211E-02    0.477E-02
RMM:   6    -0.204308097103E+03    0.12629E-04   -0.20578E-05  6608   0.122E-02    0.188E-02
RMM:   7    -0.204308093282E+03    0.38211E-05   -0.31328E-06  6567   0.474E-03    0.498E-03
RMM:   8    -0.204308092994E+03    0.28825E-06   -0.78222E-07  6090   0.254E-03    0.295E-03
RMM:   9    -0.204308092922E+03    0.71397E-07   -0.28929E-07  4359   0.160E-03
  30 F= -.20430809E+03 E0= -.20431430E+03  d E =-.203804E-03  mag=    -0.0000
       N       E                     dE             d eps       ncg     rms          rms(c)
DAV:   1    -0.204308094321E+03   -0.13270E-05   -0.23213E-03  6912   0.143E-01    0.261E-02
RMM:   2    -0.204308106058E+03   -0.11737E-04   -0.67397E-05  6534   0.274E-02    0.368E-02
RMM:   3    -0.204308097345E+03    0.87132E-05   -0.64702E-06  6604   0.810E-03    0.144E-02
RMM:   4    -0.204308096433E+03    0.91180E-06   -0.26428E-06  6520   0.455E-03    0.974E-03
RMM:   5    -0.204308095952E+03    0.48068E-06   -0.13438E-06  6263   0.329E-03    0.676E-03
RMM:   6    -0.204308095673E+03    0.27939E-06   -0.46481E-07  5212   0.191E-03    0.309E-03
RMM:   7    -0.204308095538E+03    0.13533E-06   -0.82356E-08  3703   0.103E-03    0.118E-03
RMM:   8    -0.204308095530E+03    0.82273E-08   -0.21444E-08  3457   0.544E-04
  31 F= -.20430810E+03 E0= -.20431429E+03  d E =-.206412E-03  mag=    -0.0000
       N       E                     dE             d eps       ncg     rms          rms(c)
DAV:   1    -0.204308315676E+03   -0.22014E-03   -0.55553E-02  6528   0.729E-01    0.114E-01
RMM:   2    -0.204308531069E+03   -0.21539E-03   -0.16555E-03  6528   0.133E-01    0.155E-01
RMM:   3    -0.204308315579E+03    0.21549E-03   -0.18269E-04  6560   0.411E-02    0.838E-02
RMM:   4    -0.204308273285E+03    0.42293E-04   -0.70516E-05  6528   0.255E-02    0.453E-02
RMM:   5    -0.204308263363E+03    0.99219E-05   -0.26179E-05  6532   0.154E-02    0.295E-02
RMM:   6    -0.204308260951E+03    0.24120E-05   -0.13316E-05  6654   0.930E-03    0.198E-02
RMM:   7    -0.204308259028E+03    0.19231E-05   -0.24537E-06  6594   0.422E-03    0.427E-03
RMM:   8    -0.204308259170E+03   -0.14140E-06   -0.45659E-07  5209   0.215E-03    0.188E-03
RMM:   9    -0.204308259185E+03   -0.15165E-07   -0.67378E-08  3793   0.904E-04
  32 F= -.20430826E+03 E0= -.20431443E+03  d E =-.163655E-03  mag=    -0.0000
       N       E                     dE             d eps       ncg     rms          rms(c)
DAV:   1    -0.204308385806E+03   -0.12664E-03   -0.78335E-02  6528   0.866E-01    0.135E-01
RMM:   2    -0.204308690394E+03   -0.30459E-03   -0.23337E-03  6528   0.158E-01    0.184E-01
RMM:   3    -0.204308385998E+03    0.30440E-03   -0.25755E-04  6560   0.488E-02    0.993E-02
RMM:   4    -0.204308325601E+03    0.60397E-04   -0.99729E-05  6528   0.303E-02    0.532E-02
RMM:   5    -0.204308311787E+03    0.13813E-04   -0.36712E-05  6532   0.182E-02    0.347E-02
RMM:   6    -0.204308308418E+03    0.33689E-05   -0.18644E-05  6654   0.110E-02    0.237E-02
RMM:   7    -0.204308305470E+03    0.29481E-05   -0.34756E-06  6610   0.501E-03    0.506E-03
RMM:   8    -0.204308305595E+03   -0.12468E-06   -0.68201E-07  6024   0.256E-03    0.225E-03
RMM:   9    -0.204308305604E+03   -0.94733E-08   -0.84492E-08  3864   0.937E-04
  33 F= -.20430831E+03 E0= -.20431445E+03  d E =-.210075E-03  mag=    -0.0000
       N       E                     dE             d eps       ncg     rms          rms(c)
DAV:   1    -0.204308444254E+03   -0.13866E-03   -0.60262E-02  6528   0.757E-01    0.106E-01
RMM:   2    -0.204308744279E+03   -0.30003E-03   -0.16335E-03  6528   0.138E-01    0.170E-01
RMM:   3    -0.204308468840E+03    0.27544E-03   -0.18214E-04  6548   0.438E-02    0.807E-02
RMM:   4    -0.204308446224E+03    0.22616E-04   -0.36766E-05  6538   0.186E-02    0.578E-02
RMM:   5    -0.204308435531E+03    0.10693E-04   -0.14608E-05  6528   0.103E-02    0.358E-02
RMM:   6    -0.204308428469E+03    0.70613E-05   -0.14113E-05  6557   0.946E-03    0.181E-02
RMM:   7    -0.204308426119E+03    0.23505E-05   -0.29432E-06  6638   0.477E-03    0.504E-03
RMM:   8    -0.204308426098E+03    0.20586E-07   -0.26061E-07  4234   0.190E-03
  34 F= -.20430843E+03 E0= -.20431462E+03  d E =-.120494E-03  mag=    -0.0000
       N       E                     dE             d eps       ncg     rms          rms(c)
DAV:   1    -0.204308490495E+03   -0.64377E-04   -0.72237E-02  6528   0.829E-01    0.117E-01
RMM:   2    -0.204308855847E+03   -0.36535E-03   -0.19667E-03  6528   0.151E-01    0.187E-01
RMM:   3    -0.204308520137E+03    0.33571E-03   -0.22085E-04  6548   0.482E-02    0.888E-02
RMM:   4    -0.204308493152E+03    0.26985E-04   -0.44360E-05  6538   0.204E-02    0.638E-02
RMM:   5    -0.204308480080E+03    0.13072E-04   -0.17570E-05  6528   0.113E-02    0.396E-02
RMM:   6    -0.204308471537E+03    0.85435E-05   -0.16988E-05  6556   0.104E-02    0.200E-02
RMM:   7    -0.204308468673E+03    0.28644E-05   -0.35693E-06  6636   0.525E-03    0.556E-03
RMM:   8    -0.204308468648E+03    0.24618E-07   -0.32723E-07  4484   0.209E-03
  35 F= -.20430847E+03 E0= -.20431472E+03  d E =-.163043E-03  mag=     0.0000
       N       E                     dE             d eps       ncg     rms          rms(c)
DAV:   1    -0.204308557619E+03   -0.88946E-04   -0.19293E-02  6528   0.433E-01    0.485E-02
RMM:   2    -0.204308586068E+03   -0.28449E-04   -0.53068E-04  6528   0.749E-02    0.642E-02
RMM:   3    -0.204308565613E+03    0.20454E-04   -0.32539E-05  6669   0.206E-02    0.296E-02
RMM:   4    -0.204308564422E+03    0.11919E-05   -0.13725E-05  6530   0.107E-02    0.378E-02
RMM:   5    -0.204308564160E+03    0.26197E-06   -0.86001E-06  6548   0.837E-03    0.345E-02
RMM:   6    -0.204308557114E+03    0.70455E-05   -0.51851E-06  6528   0.616E-03    0.704E-03
RMM:   7    -0.204308556364E+03    0.74992E-06   -0.11084E-06  6342   0.304E-03    0.217E-03
RMM:   8    -0.204308556288E+03    0.76418E-07   -0.88544E-08  3868   0.100E-03
  36 F= -.20430856E+03 E0= -.20431483E+03  d E =-.876398E-04  mag=     0.0000
       N       E                     dE             d eps       ncg     rms          rms(c)
DAV:   1    -0.204308593071E+03   -0.36707E-04   -0.17969E-02  6528   0.418E-01    0.468E-02
RMM:   2    -0.204308618619E+03   -0.25549E-04   -0.49374E-04  6528   0.723E-02    0.614E-02
RMM:   3    -0.204308600205E+03    0.18414E-04   -0.30153E-05  6672   0.198E-02    0.286E-02
RMM:   4    -0.204308599012E+03    0.11932E-05   -0.12917E-05  6530   0.103E-02    0.366E-02
RMM:   5    -0.204308598790E+03    0.22156E-06   -0.81445E-06  6546   0.812E-03    0.336E-02
RMM:   6    -0.204308592038E+03    0.67526E-05   -0.48859E-06  6528   0.596E-03    0.687E-03
RMM:   7    -0.204308591303E+03    0.73434E-06   -0.10603E-06  6296   0.296E-03    0.215E-03
RMM:   8    -0.204308591222E+03    0.81893E-07   -0.86118E-08  3858   0.101E-03
  37 F= -.20430859E+03 E0= -.20431489E+03  d E =-.122574E-03  mag=     0.0000
       N       E                     dE             d eps       ncg     rms          rms(c)
DAV:   1    -0.204308643592E+03   -0.52289E-04   -0.21082E-02  6528   0.441E-01    0.561E-02
RMM:   2    -0.204308717578E+03   -0.73986E-04   -0.53629E-04  6528   0.784E-02    0.765E-02
RMM:   3    -0.204308678063E+03    0.39515E-04   -0.45679E-05  6563   0.224E-02    0.460E-02
RMM:   4    -0.204308669829E+03    0.82339E-05   -0.89978E-06  6600   0.839E-03    0.257E-02
RMM:   5    -0.204308670089E+03   -0.26033E-06   -0.92397E-06  6550   0.729E-03    0.178E-02
RMM:   6    -0.204308669293E+03    0.79633E-06   -0.43217E-06  6530   0.559E-03    0.154E-02
RMM:   7    -0.204308667569E+03    0.17236E-05   -0.90952E-07  5994   0.285E-03    0.211E-03
RMM:   8    -0.204308667515E+03    0.54206E-07   -0.92457E-08  3837   0.912E-04
  38 F= -.20430867E+03 E0= -.20431500E+03  d E =-.762933E-04  mag=     0.0000
       N       E                     dE             d eps       ncg     rms          rms(c)
DAV:   1    -0.204308681015E+03   -0.13446E-04   -0.16309E-02  6528   0.388E-01    0.492E-02
RMM:   2    -0.204308738212E+03   -0.57197E-04   -0.41564E-04  6528   0.690E-02    0.667E-02
RMM:   3    -0.204308708214E+03    0.29998E-04   -0.35256E-05  6562   0.197E-02    0.405E-02
RMM:   4    -0.204308701905E+03    0.63086E-05   -0.69481E-06  6598   0.737E-03    0.226E-02
RMM:   5    -0.204308702207E+03   -0.30124E-06   -0.70635E-06  6550   0.639E-03    0.159E-02
RMM:   6    -0.204308701626E+03    0.58045E-06   -0.33894E-06  6528   0.492E-03    0.138E-02
RMM:   7    -0.204308700245E+03    0.13815E-05   -0.72930E-07  5898   0.254E-03    0.187E-03
RMM:   8    -0.204308700203E+03    0.41930E-07   -0.73084E-08  3780   0.834E-04
  39 F= -.20430870E+03 E0= -.20431507E+03  d E =-.108981E-03  mag=     0.0000
       N       E                     dE             d eps       ncg     rms          rms(c)
DAV:   1    -0.204308699746E+03    0.49868E-06   -0.34149E-03  6544   0.178E-01    0.225E-02
RMM:   2    -0.204308712018E+03   -0.12272E-04   -0.87214E-05  6528   0.316E-02    0.303E-02
RMM:   3    -0.204308705874E+03    0.61447E-05   -0.73669E-06  6564   0.902E-03    0.186E-02
RMM:   4    -0.204308704625E+03    0.12488E-05   -0.14570E-06  6593   0.337E-03    0.104E-02
RMM:   5    -0.204308704762E+03   -0.13702E-06   -0.14777E-06  6387   0.293E-03    0.731E-03
RMM:   6    -0.204308704658E+03    0.10433E-06   -0.71315E-07  5918   0.228E-03    0.620E-03
RMM:   7    -0.204308704363E+03    0.29518E-06   -0.14254E-07  3766   0.126E-03    0.906E-04
RMM:   8    -0.204308704353E+03    0.91204E-08   -0.31862E-08  3496   0.705E-04
  40 F= -.20430870E+03 E0= -.20431509E+03  d E =-.113132E-03  mag=     0.0000
       N       E                     dE             d eps       ncg     rms          rms(c)
DAV:   1    -0.204308765479E+03   -0.61117E-04   -0.12098E-02  6528   0.339E-01    0.475E-02
RMM:   2    -0.204308795094E+03   -0.29614E-04   -0.34215E-04  6528   0.588E-02    0.620E-02
RMM:   3    -0.204308764682E+03    0.30412E-04   -0.33575E-05  6536   0.176E-02    0.346E-02
RMM:   4    -0.204308755616E+03    0.90654E-05   -0.13465E-05  6532   0.108E-02    0.187E-02
RMM:   5    -0.204308753747E+03    0.18688E-05   -0.61257E-06  6532   0.752E-03    0.157E-02
RMM:   6    -0.204308752614E+03    0.11338E-05   -0.27430E-06  6572   0.446E-03    0.827E-03
RMM:   7    -0.204308751838E+03    0.77595E-06   -0.53788E-07  5781   0.200E-03    0.234E-03
RMM:   8    -0.204308751722E+03    0.11543E-06   -0.10659E-07  3673   0.107E-03    0.117E-03
RMM:   9    -0.204308751651E+03    0.71133E-07   -0.24381E-08  3454   0.657E-04
  41 F= -.20430875E+03 E0= -.20431517E+03  d E =-.472976E-04  mag=     0.0000
       N       E                     dE             d eps       ncg     rms          rms(c)
DAV:   1    -0.204308900199E+03   -0.14848E-03   -0.88107E-02  6528   0.916E-01    0.128E-01
RMM:   2    -0.204309115493E+03   -0.21529E-03   -0.24842E-03  6528   0.159E-01    0.168E-01
RMM:   3    -0.204308895426E+03    0.22007E-03   -0.24408E-04  6536   0.475E-02    0.938E-02
RMM:   4    -0.204308829308E+03    0.66118E-04   -0.98352E-05  6532   0.291E-02    0.505E-02
RMM:   5    -0.204308816878E+03    0.12430E-04   -0.44619E-05  6532   0.203E-02    0.423E-02
RMM:   6    -0.204308809998E+03    0.68794E-05   -0.20048E-05  6586   0.121E-02    0.225E-02
RMM:   7    -0.204308805735E+03    0.42627E-05   -0.39963E-06  6558   0.540E-03    0.641E-03
RMM:   8    -0.204308805286E+03    0.44948E-06   -0.94516E-07  6306   0.271E-03    0.321E-03
RMM:   9    -0.204308805025E+03    0.26107E-06   -0.11593E-07  3894   0.123E-03    0.166E-03
RMM:  10    -0.204308804940E+03    0.84961E-07   -0.52215E-08  3744   0.708E-04
  42 F= -.20430880E+03 E0= -.20431530E+03  d E =-.100587E-03  mag=     0.0000
       N       E                     dE             d eps       ncg     rms          rms(c)
DAV:   1    -0.204308851278E+03   -0.46253E-04   -0.27837E-02  6528   0.518E-01    0.478E-02
RMM:   2    -0.204308924100E+03   -0.72822E-04   -0.66373E-04  6528   0.840E-02    0.834E-02
RMM:   3    -0.204308881205E+03    0.42895E-04   -0.42851E-05  6560   0.239E-02    0.281E-02
RMM:   4    -0.204308877912E+03    0.32925E-05   -0.11878E-05  6558   0.963E-03    0.279E-02
RMM:   5    -0.204308876317E+03    0.15953E-05   -0.76885E-06  6554   0.769E-03    0.258E-02
RMM:   6    -0.204308873193E+03    0.31237E-05   -0.41550E-06  6530   0.566E-03    0.909E-03
RMM:   7    -0.204308872328E+03    0.86464E-06   -0.12769E-06  6446   0.300E-03    0.262E-03
RMM:   8    -0.204308872229E+03    0.99124E-07   -0.11643E-07  3834   0.132E-03
  43 F= -.20430887E+03 E0= -.20431539E+03  d E =-.672893E-04  mag=     0.0000
       N       E                     dE             d eps       ncg     rms          rms(c)
DAV:   1    -0.204308895733E+03   -0.23405E-04   -0.35062E-02  6528   0.582E-01    0.540E-02
RMM:   2    -0.204308988180E+03   -0.92446E-04   -0.83780E-04  6528   0.944E-02    0.941E-02
RMM:   3    -0.204308933627E+03    0.54552E-04   -0.54339E-05  6562   0.269E-02    0.317E-02
RMM:   4    -0.204308929427E+03    0.41998E-05   -0.15023E-05  6556   0.108E-02    0.313E-02
RMM:   5    -0.204308927460E+03    0.19670E-05   -0.97070E-06  6554   0.862E-03    0.289E-02
RMM:   6    -0.204308923561E+03    0.38995E-05   -0.52121E-06  6530   0.635E-03    0.102E-02
RMM:   7    -0.204308922485E+03    0.10760E-05   -0.16108E-06  6542   0.336E-03    0.294E-03
RMM:   8    -0.204308922363E+03    0.12190E-06   -0.14675E-07  3898   0.146E-03    0.226E-03
RMM:   9    -0.204308922302E+03    0.60718E-07   -0.49048E-08  3670   0.857E-04
  44 F= -.20430892E+03 E0= -.20431546E+03  d E =-.117362E-03  mag=     0.0000
