unknown system                          
           1
    15.385143    0.000000   -1.129118
     0.000000    3.569780    0.000000
    -0.338179    0.000000   10.710404
   Ir   O 
  10  20
Direct configuration=     1
   0.00000000  0.50000000  0.00000000
   0.50000000  0.00000000  0.00000000
   0.99978000  0.00000000  0.26820000
   0.49978000  0.50000000  0.26820000
   0.00022000  0.00000000  0.73180000
   0.50022000  0.50000000  0.73180000
   0.34010000  0.00000000  0.48410000
   0.84010000  0.50000000  0.48410000
   0.65990000  0.00000000  0.51590000
   0.15990000  0.50000000  0.51590000
   0.56690000  0.00000000  0.17730000
   0.06690000  0.50000000  0.17730000
   0.43310000  0.00000000  0.82270000
   0.93310000  0.50000000  0.82270000
   0.09760000  0.00000000  0.42440000
   0.59760000  0.50000000  0.42440000
   0.90240000  0.00000000  0.57560000
   0.40240000  0.50000000  0.57560000
   0.76630000  0.00000000  0.39580000
   0.26630000  0.50000000  0.39580000
   0.23370000  0.00000000  0.60420000
   0.73370000  0.50000000  0.60420000
   0.42480000  0.00000000  0.33540000
   0.92480000  0.50000000  0.33540000
   0.57520000  0.00000000  0.66460000
   0.07520000  0.50000000  0.66460000
   0.92630000  0.00000000  0.07210000
   0.42630000  0.50000000  0.07210000
   0.07370000  0.00000000  0.92790000
   0.57370000  0.50000000  0.92790000
unknown system                          
           1
    14.329860    0.000000   -0.735066
     0.000000    3.049506    0.000000
    -0.095119    0.000000    9.968384
   Ir   O 
  10  20
Direct configuration=     2
   0.00000000  0.50000000  0.00000000
   0.50000000 -0.00000000  0.00000000
   0.00193778 -0.00000000  0.26619458
   0.50193778  0.50000000  0.26619458
  -0.00193778 -0.00000000  0.73380542
   0.49806222  0.50000000  0.73380542
   0.34428643  0.00000000  0.47831179
   0.84428643  0.50000000  0.47831179
   0.65571357 -0.00000000  0.52168821
   0.15571357  0.50000000  0.52168821
   0.57572232  0.00000000  0.17965118
   0.07572232  0.50000000  0.17965118
   0.42427768 -0.00000000  0.82034882
   0.92427768  0.50000000  0.82034882
   0.08745377 -0.00000000  0.41211390
   0.58745377  0.50000000  0.41211390
   0.91254623 -0.00000000  0.58788610
   0.41254623  0.50000000  0.58788610
   0.76434354 -0.00000000  0.38072414
   0.26434354  0.50000000  0.38072414
   0.23565646 -0.00000000  0.61927586
   0.73565646  0.50000000  0.61927586
   0.42110705 -0.00000000  0.34031831
   0.92110705  0.50000000  0.34031831
   0.57889295  0.00000000  0.65968169
   0.07889295  0.50000000  0.65968169
   0.91886028  0.00000000  0.08643851
   0.41886028  0.50000000  0.08643851
   0.08113972 -0.00000000  0.91356149
   0.58113972  0.50000000  0.91356149
unknown system                          
           1
    14.269514    0.000000   -0.712533
     0.000000    3.019754    0.000000
    -0.081220    0.000000    9.925952
   Ir   O 
  10  20
Direct configuration=     3
   0.00000000  0.50000000  0.00000000
   0.50000000 -0.00000000  0.00000000
   0.00056221 -0.00000000  0.26743609
   0.50056221  0.50000000  0.26743609
  -0.00056221 -0.00000000  0.73256391
   0.49943779  0.50000000  0.73256391
   0.34164476  0.00000000  0.48195563
   0.84164476  0.50000000  0.48195563
   0.65835524 -0.00000000  0.51804437
   0.15835524  0.50000000  0.51804437
   0.56994720  0.00000000  0.17785926
   0.06994720  0.50000000  0.17785926
   0.43005280 -0.00000000  0.82214074
   0.93005280  0.50000000  0.82214074
   0.09423264 -0.00000000  0.42041226
   0.59423264  0.50000000  0.42041226
   0.90576736 -0.00000000  0.57958774
   0.40576736  0.50000000  0.57958774
   0.76583250 -0.00000000  0.39059586
   0.26583250  0.50000000  0.39059586
   0.23416750 -0.00000000  0.60940414
   0.73416750  0.50000000  0.60940414
   0.42344001 -0.00000000  0.33722611
   0.92344001  0.50000000  0.33722611
   0.57655999  0.00000000  0.66277389
   0.07655999  0.50000000  0.66277389
   0.92349681  0.00000000  0.07732517
   0.42349681  0.50000000  0.07732517
   0.07650319 -0.00000000  0.92267483
   0.57650319  0.50000000  0.92267483
unknown system                          
           1
    14.253785    0.000000   -0.706659
     0.000000    3.011999    0.000000
    -0.077597    0.000000    9.914892
   Ir   O 
  10  20
Direct configuration=     4
   0.00000000  0.50000000  0.00000000
   0.50000000 -0.00000000  0.00000000
   0.00047661 -0.00000000  0.26751497
   0.50047661  0.50000000  0.26751497
  -0.00047661 -0.00000000  0.73248503
   0.49952339  0.50000000  0.73248503
   0.34147918  0.00000000  0.48218442
   0.84147918  0.50000000  0.48218442
   0.65852082 -0.00000000  0.51781558
   0.15852082  0.50000000  0.51781558
   0.56959439  0.00000000  0.17776056
   0.06959439  0.50000000  0.17776056
   0.43040561 -0.00000000  0.82223944
   0.93040561  0.50000000  0.82223944
   0.09464093 -0.00000000  0.42090832
   0.59464093  0.50000000  0.42090832
   0.90535907 -0.00000000  0.57909168
   0.40535907  0.50000000  0.57909168
   0.76591460 -0.00000000  0.39119881
   0.26591460  0.50000000  0.39119881
   0.23408540 -0.00000000  0.60880119
   0.73408540  0.50000000  0.60880119
   0.42358613 -0.00000000  0.33703179
   0.92358613  0.50000000  0.33703179
   0.57641387  0.00000000  0.66296821
   0.07641387  0.50000000  0.66296821
   0.92379000  0.00000000  0.07675682
   0.42379000  0.50000000  0.07675682
   0.07621000 -0.00000000  0.92324318
   0.57621000  0.50000000  0.92324318
unknown system                          
           1
    13.931471    0.000000   -0.831458
     0.000000    3.081982    0.000000
    -0.168433    0.000000    9.798296
   Ir   O 
  10  20
Direct configuration=     5
   0.00000000  0.50000000  0.00000000
   0.50000000 -0.00000000  0.00000000
   0.00045418 -0.00000000  0.26753566
   0.50045418  0.50000000  0.26753566
  -0.00045418 -0.00000000  0.73246434
   0.49954582  0.50000000  0.73246434
   0.34143578  0.00000000  0.48224439
   0.84143578  0.50000000  0.48224439
   0.65856422 -0.00000000  0.51775561
   0.15856422  0.50000000  0.51775561
   0.56950207  0.00000000  0.17773490
   0.06950207  0.50000000  0.17773490
   0.43049793 -0.00000000  0.82226510
   0.93049793  0.50000000  0.82226510
   0.09474767 -0.00000000  0.42103796
   0.59474767  0.50000000  0.42103796
   0.90525233 -0.00000000  0.57896204
   0.40525233  0.50000000  0.57896204
   0.76593594 -0.00000000  0.39135659
   0.26593594  0.50000000  0.39135659
   0.23406406 -0.00000000  0.60864341
   0.73406406  0.50000000  0.60864341
   0.42362442 -0.00000000  0.33698085
   0.92362442  0.50000000  0.33698085
   0.57637558  0.00000000  0.66301915
   0.07637558  0.50000000  0.66301915
   0.92386689  0.00000000  0.07660791
   0.42386689  0.50000000  0.07660791
   0.07613311 -0.00000000  0.92339209
   0.57613311  0.50000000  0.92339209
unknown system                          
           1
    13.936522    0.000000   -0.829502
     0.000000    3.080886    0.000000
    -0.167009    0.000000    9.800123
   Ir   O 
  10  20
Direct configuration=     6
   0.00000000  0.50000000  0.00000000
   0.50000000 -0.00000000  0.00000000
  -0.00038129 -0.00000000  0.26421943
   0.49961871  0.50000000  0.26421943
   0.00038129 -0.00000000  0.73578057
   0.50038129  0.50000000  0.73578057
   0.34051103  0.00000000  0.48401573
   0.84051103  0.50000000  0.48401573
   0.65948897 -0.00000000  0.51598427
   0.15948897  0.50000000  0.51598427
   0.56927185  0.00000000  0.18147955
   0.06927185  0.50000000  0.18147955
   0.43072815 -0.00000000  0.81852045
   0.93072815  0.50000000  0.81852045
   0.09320698 -0.00000000  0.42086703
   0.59320698  0.50000000  0.42086703
   0.90679302  0.00000000  0.57913297
   0.40679302  0.50000000  0.57913297
   0.76604375 -0.00000000  0.39218715
   0.26604375  0.50000000  0.39218715
   0.23395625 -0.00000000  0.60781285
   0.73395625  0.50000000  0.60781285
   0.42674007 -0.00000000  0.33544301
   0.92674007  0.50000000  0.33544301
   0.57325993  0.00000000  0.66455699
   0.07325993  0.50000000  0.66455699
   0.92626777  0.00000000  0.08165679
   0.42626777  0.50000000  0.08165679
   0.07373223 -0.00000000  0.91834321
   0.57373223  0.50000000  0.91834321
unknown system                          
           1
    13.696477    0.000000   -0.785657
     0.000000    3.100695    0.000000
    -0.131497    0.000000    9.830437
   Ir   O 
  10  20
Direct configuration=     7
   0.00000000  0.50000000  0.00000000
   0.50000000 -0.00000000  0.00000000
  -0.00036755 -0.00000000  0.26427224
   0.49963245  0.50000000  0.26427224
   0.00036755 -0.00000000  0.73572776
   0.50036755  0.50000000  0.73572776
   0.34052567  0.00000000  0.48398784
   0.84052567  0.50000000  0.48398784
   0.65947433 -0.00000000  0.51601216
   0.15947433  0.50000000  0.51601216
   0.56927515  0.00000000  0.18142019
   0.06927515  0.50000000  0.18142019
   0.43072485 -0.00000000  0.81857981
   0.93072485  0.50000000  0.81857981
   0.09323170 -0.00000000  0.42087009
   0.59323170  0.50000000  0.42087009
   0.90676830  0.00000000  0.57912991
   0.40676830  0.50000000  0.57912991
   0.76604193 -0.00000000  0.39217395
   0.26604193  0.50000000  0.39217395
   0.23395807 -0.00000000  0.60782605
   0.73395807  0.50000000  0.60782605
   0.42669027 -0.00000000  0.33546669
   0.92669027  0.50000000  0.33546669
   0.57330973  0.00000000  0.66453331
   0.07330973  0.50000000  0.66453331
   0.92622874  0.00000000  0.08157613
   0.42622874  0.50000000  0.08157613
   0.07377126 -0.00000000  0.91842387
   0.57377126  0.50000000  0.91842387
unknown system                          
           1
    13.709259    0.000000   -0.787992
     0.000000    3.099641    0.000000
    -0.133388    0.000000    9.828822
   Ir   O 
  10  20
Direct configuration=     8
   0.00000000  0.50000000  0.00000000
   0.50000000 -0.00000000  0.00000000
  -0.00135910 -0.00000000  0.26582532
   0.49864090  0.50000000  0.26582532
   0.00135910 -0.00000000  0.73417468
   0.50135910  0.50000000  0.73417468
   0.34304440 -0.00000000  0.48317903
   0.84304440  0.50000000  0.48317903
   0.65695560 -0.00000000  0.51682097
   0.15695560  0.50000000  0.51682097
   0.57005001 -0.00000000  0.18637415
   0.07005001  0.50000000  0.18637415
   0.42994999  0.00000000  0.81362585
   0.92994999  0.50000000  0.81362585
   0.09327592 -0.00000000  0.42315648
   0.59327592  0.50000000  0.42315648
   0.90672408  0.00000000  0.57684352
   0.40672408  0.50000000  0.57684352
   0.76673920 -0.00000000  0.39186559
   0.26673920  0.50000000  0.39186559
   0.23326080 -0.00000000  0.60813441
   0.73326080  0.50000000  0.60813441
   0.42936052 -0.00000000  0.33465986
   0.92936052  0.50000000  0.33465986
   0.57063948  0.00000000  0.66534014
   0.07063948  0.50000000  0.66534014
   0.92806428  0.00000000  0.08256227
   0.42806428  0.50000000  0.08256227
   0.07193572 -0.00000000  0.91743773
   0.57193572  0.50000000  0.91743773
unknown system                          
           1
    13.656377    0.000000   -0.783709
     0.000000    3.110043    0.000000
    -0.126565    0.000000    9.885144
   Ir   O 
  10  20
Direct configuration=     9
   0.00000000  0.50000000  0.00000000
   0.50000000 -0.00000000  0.00000000
  -0.00130516 -0.00000000  0.26574273
   0.49869484  0.50000000  0.26574273
   0.00130516 -0.00000000  0.73425727
   0.50130516  0.50000000  0.73425727
   0.34290782 -0.00000000  0.48322237
   0.84290782  0.50000000  0.48322237
   0.65709218 -0.00000000  0.51677763
   0.15709218  0.50000000  0.51677763
   0.57000872 -0.00000000  0.18611135
   0.07000872  0.50000000  0.18611135
   0.42999128  0.00000000  0.81388865
   0.92999128  0.50000000  0.81388865
   0.09327384 -0.00000000  0.42303514
   0.59327384  0.50000000  0.42303514
   0.90672616  0.00000000  0.57696486
   0.40672616  0.50000000  0.57696486
   0.76670137 -0.00000000  0.39188207
   0.26670137  0.50000000  0.39188207
   0.23329863 -0.00000000  0.60811793
   0.73329863  0.50000000  0.60811793
   0.42921573 -0.00000000  0.33470312
   0.92921573  0.50000000  0.33470312
   0.57078427  0.00000000  0.66529688
   0.07078427  0.50000000  0.66529688
   0.92796497  0.00000000  0.08251023
   0.42796497  0.50000000  0.08251023
   0.07203503 -0.00000000  0.91748977
   0.57203503  0.50000000  0.91748977
unknown system                          
           1
    13.662994    0.000000   -0.784245
     0.000000    3.108741    0.000000
    -0.127419    0.000000    9.878097
   Ir   O 
  10  20
Direct configuration=    10
   0.00000000  0.50000000  0.00000000
   0.50000000 -0.00000000  0.00000000
   0.00017475  0.00000000  0.26640625
   0.50017475  0.50000000  0.26640625
  -0.00017475 -0.00000000  0.73359375
   0.49982525  0.50000000  0.73359375
   0.34254532 -0.00000000  0.48148612
   0.84254532  0.50000000  0.48148612
   0.65745468  0.00000000  0.51851388
   0.15745468  0.50000000  0.51851388
   0.57050697 -0.00000000  0.18772952
   0.07050697  0.50000000  0.18772952
   0.42949303  0.00000000  0.81227048
   0.92949303  0.50000000  0.81227048
   0.09229418 -0.00000000  0.42483549
   0.59229418  0.50000000  0.42483549
   0.90770582  0.00000000  0.57516451
   0.40770582  0.50000000  0.57516451
   0.76757197 -0.00000000  0.39241133
   0.26757197  0.50000000  0.39241133
   0.23242803 -0.00000000  0.60758867
   0.73242803  0.50000000  0.60758867
   0.42981552  0.00000000  0.33576915
   0.92981552  0.50000000  0.33576915
   0.57018448 -0.00000000  0.66423085
   0.07018448  0.50000000  0.66423085
   0.92843412  0.00000000  0.08218689
   0.42843412  0.50000000  0.08218689
   0.07156588 -0.00000000  0.91781311
   0.57156588  0.50000000  0.91781311
unknown system                          
           1
    13.622797    0.000000   -0.809735
     0.000000    3.101305    0.000000
    -0.145513    0.000000    9.877404
   Ir   O 
  10  20
Direct configuration=    11
   0.00000000  0.50000000  0.00000000
   0.50000000 -0.00000000  0.00000000
  -0.00001110  0.00000000  0.26632372
   0.49998890  0.50000000  0.26632372
   0.00001110 -0.00000000  0.73367628
   0.50001110  0.50000000  0.73367628
   0.34259073 -0.00000000  0.48170212
   0.84259073  0.50000000  0.48170212
   0.65740927 -0.00000000  0.51829788
   0.15740927  0.50000000  0.51829788
   0.57044449 -0.00000000  0.18752821
   0.07044449  0.50000000  0.18752821
   0.42955551  0.00000000  0.81247179
   0.92955551  0.50000000  0.81247179
   0.09241736 -0.00000000  0.42461150
   0.59241736  0.50000000  0.42461150
   0.90758264  0.00000000  0.57538850
   0.40758264  0.50000000  0.57538850
   0.76746265 -0.00000000  0.39234550
   0.26746265  0.50000000  0.39234550
   0.23253735 -0.00000000  0.60765450
   0.73253735  0.50000000  0.60765450
   0.42974025  0.00000000  0.33563654
   0.92974025  0.50000000  0.33563654
   0.57025975 -0.00000000  0.66436346
   0.07025975  0.50000000  0.66436346
   0.92837516  0.00000000  0.08222713
   0.42837516  0.50000000  0.08222713
   0.07162484 -0.00000000  0.91777287
   0.57162484  0.50000000  0.91777287
unknown system                          
           1
    13.621781    0.000000   -0.810380
     0.000000    3.101117    0.000000
    -0.145971    0.000000    9.877386
   Ir   O 
  10  20
Direct configuration=    12
   0.00000000  0.50000000  0.00000000
   0.50000000  0.00000000  0.00000000
   0.00080391  0.00000000  0.26646007
   0.50080391  0.50000000  0.26646007
  -0.00080391 -0.00000000  0.73353993
   0.49919609  0.50000000  0.73353993
   0.34247307 -0.00000000  0.48121493
   0.84247307  0.50000000  0.48121493
   0.65752693  0.00000000  0.51878507
   0.15752693  0.50000000  0.51878507
   0.57090359 -0.00000000  0.18733089
   0.07090359  0.50000000  0.18733089
   0.42909641  0.00000000  0.81266911
   0.92909641  0.50000000  0.81266911
   0.09194343 -0.00000000  0.42735494
   0.59194343  0.50000000  0.42735494
   0.90805657  0.00000000  0.57264506
   0.40805657  0.50000000  0.57264506
   0.76777470 -0.00000000  0.39292592
   0.26777470  0.50000000  0.39292592
   0.23222530 -0.00000000  0.60707408
   0.73222530  0.50000000  0.60707408
   0.43057287  0.00000000  0.33619866
   0.93057287  0.50000000  0.33619866
   0.56942713 -0.00000000  0.66380134
   0.06942713  0.50000000  0.66380134
   0.92911072  0.00000000  0.08264891
   0.42911072  0.50000000  0.08264891
   0.07088928 -0.00000000  0.91735109
   0.57088928  0.50000000  0.91735109
unknown system                          
           1
    13.628759    0.000000   -0.825177
     0.000000    3.108991    0.000000
    -0.156137    0.000000    9.888114
   Ir   O 
  10  20
Direct configuration=    13
   0.00000000  0.50000000  0.00000000
   0.50000000  0.00000000  0.00000000
   0.00082458  0.00000000  0.26646358
   0.50082458  0.50000000  0.26646358
  -0.00082458 -0.00000000  0.73353642
   0.49917542  0.50000000  0.73353642
   0.34247007 -0.00000000  0.48120260
   0.84247007  0.50000000  0.48120260
   0.65752993  0.00000000  0.51879740
   0.15752993  0.50000000  0.51879740
   0.57091522 -0.00000000  0.18732594
   0.07091522  0.50000000  0.18732594
   0.42908478  0.00000000  0.81267406
   0.92908478  0.50000000  0.81267406
   0.09193150 -0.00000000  0.42742428
   0.59193150  0.50000000  0.42742428
   0.90806850  0.00000000  0.57257572
   0.40806850  0.50000000  0.57257572
   0.76778263 -0.00000000  0.39294062
   0.26778263  0.50000000  0.39294062
   0.23221737 -0.00000000  0.60705938
   0.73221737  0.50000000  0.60705938
   0.43059400  0.00000000  0.33621294
   0.93059400  0.50000000  0.33621294
   0.56940600 -0.00000000  0.66378706
   0.06940600  0.50000000  0.66378706
   0.92912939  0.00000000  0.08265963
   0.42912939  0.50000000  0.08265963
   0.07087061 -0.00000000  0.91734037
   0.57087061  0.50000000  0.91734037
unknown system                          
           1
    13.629972    0.000000   -0.827751
     0.000000    3.110360    0.000000
    -0.157905    0.000000    9.889979
   Ir   O 
  10  20
Direct configuration=    14
   0.00000000  0.50000000  0.00000000
   0.50000000  0.00000000  0.00000000
   0.00128368  0.00000000  0.26696834
   0.50128368  0.50000000  0.26696834
  -0.00128368 -0.00000000  0.73303166
   0.49871632  0.50000000  0.73303166
   0.34278015 -0.00000000  0.48091043
   0.84278015  0.50000000  0.48091043
   0.65721985  0.00000000  0.51908957
   0.15721985  0.50000000  0.51908957
   0.57157801 -0.00000000  0.18663591
   0.07157801  0.50000000  0.18663591
   0.42842199  0.00000000  0.81336409
   0.92842199  0.50000000  0.81336409
   0.09145196  0.00000000  0.42953764
   0.59145196  0.50000000  0.42953764
   0.90854804  0.00000000  0.57046236
   0.40854804  0.50000000  0.57046236
   0.76739247 -0.00000000  0.39301417
   0.26739247  0.50000000  0.39301417
   0.23260753 -0.00000000  0.60698583
   0.73260753  0.50000000  0.60698583
   0.43131475  0.00000000  0.33642387
   0.93131475  0.50000000  0.33642387
   0.56868525 -0.00000000  0.66357613
   0.06868525  0.50000000  0.66357613
   0.92972858 -0.00000000  0.08328442
   0.42972858  0.50000000  0.08328442
   0.07027142 -0.00000000  0.91671558
   0.57027142  0.50000000  0.91671558
unknown system                          
           1
    13.629367    0.000000   -0.809682
     0.000000    3.110845    0.000000
    -0.145361    0.000000    9.880537
   Ir   O 
  10  20
Direct configuration=    15
   0.00000000  0.50000000  0.00000000
   0.50000000  0.00000000  0.00000000
   0.00136356  0.00000000  0.26705617
   0.50136356  0.50000000  0.26705617
  -0.00136356 -0.00000000  0.73294383
   0.49863644  0.50000000  0.73294383
   0.34283402 -0.00000000  0.48085974
   0.84283402  0.50000000  0.48085974
   0.65716598  0.00000000  0.51914026
   0.15716598  0.50000000  0.51914026
   0.57169316 -0.00000000  0.18651617
   0.07169316  0.50000000  0.18651617
   0.42830684  0.00000000  0.81348383
   0.92830684  0.50000000  0.81348383
   0.09136885  0.00000000  0.42990476
   0.59136885  0.50000000  0.42990476
   0.90863115  0.00000000  0.57009524
   0.40863115  0.50000000  0.57009524
   0.76732464 -0.00000000  0.39302685
   0.26732464  0.50000000  0.39302685
   0.23267536 -0.00000000  0.60697315
   0.73267536  0.50000000  0.60697315
   0.43144008  0.00000000  0.33646071
   0.93144008  0.50000000  0.33646071
   0.56855992 -0.00000000  0.66353929
   0.06855992  0.50000000  0.66353929
   0.92983283 -0.00000000  0.08339314
   0.42983283  0.50000000  0.08339314
   0.07016717 -0.00000000  0.91660686
   0.57016717  0.50000000  0.91660686
unknown system                          
           1
    13.628819    0.000000   -0.793346
     0.000000    3.111283    0.000000
    -0.134019    0.000000    9.872000
   Ir   O 
  10  20
Direct configuration=    16
   0.00000000  0.50000000  0.00000000
   0.50000000  0.00000000  0.00000000
   0.00186065  0.00000000  0.26734995
   0.50186065  0.50000000  0.26734995
  -0.00186065 -0.00000000  0.73265005
   0.49813935  0.50000000  0.73265005
   0.34292348 -0.00000000  0.48014723
   0.84292348  0.50000000  0.48014723
   0.65707652  0.00000000  0.51985277
   0.15707652  0.50000000  0.51985277
   0.57205246 -0.00000000  0.18624270
   0.07205246  0.50000000  0.18624270
   0.42794754  0.00000000  0.81375730
   0.92794754  0.50000000  0.81375730
   0.09080122  0.00000000  0.43060094
   0.59080122  0.50000000  0.43060094
   0.90919878  0.00000000  0.56939906
   0.40919878  0.50000000  0.56939906
   0.76662189 -0.00000000  0.39317787
   0.26662189  0.50000000  0.39317787
   0.23337811 -0.00000000  0.60682213
   0.73337811  0.50000000  0.60682213
   0.43185628  0.00000000  0.33642366
   0.93185628  0.50000000  0.33642366
   0.56814372 -0.00000000  0.66357634
   0.06814372  0.50000000  0.66357634
   0.93041564 -0.00000000  0.08393342
   0.43041564  0.50000000  0.08393342
   0.06958436 -0.00000000  0.91606658
   0.56958436  0.50000000  0.91606658
unknown system                          
           1
    13.650997    0.000000   -0.787357
     0.000000    3.106319    0.000000
    -0.129265    0.000000    9.882900
   Ir   O 
  10  20
Direct configuration=    17
   0.00000000  0.50000000  0.00000000
   0.50000000  0.00000000  0.00000000
   0.00230984  0.00000000  0.26761497
   0.50230984  0.50000000  0.26761497
  -0.00230984 -0.00000000  0.73238503
   0.49769016  0.50000000  0.73238503
   0.34300495 -0.00000000  0.47950232
   0.84300495  0.50000000  0.47950232
   0.65699505  0.00000000  0.52049768
   0.15699505  0.50000000  0.52049768
   0.57237754 -0.00000000  0.18599463
   0.07237754  0.50000000  0.18599463
   0.42762246  0.00000000  0.81400537
   0.92762246  0.50000000  0.81400537
   0.09028743  0.00000000  0.43123187
   0.59028743  0.50000000  0.43123187
   0.90971257  0.00000000  0.56876813
   0.40971257  0.50000000  0.56876813
   0.76598638 -0.00000000  0.39331570
   0.26598638  0.50000000  0.39331570
   0.23401362 -0.00000000  0.60668430
   0.73401362  0.50000000  0.60668430
   0.43223260  0.00000000  0.33638945
   0.93223260  0.50000000  0.33638945
   0.56776740 -0.00000000  0.66361055
   0.06776740  0.50000000  0.66361055
   0.93094214 -0.00000000  0.08442137
   0.43094214  0.50000000  0.08442137
   0.06905786 -0.00000000  0.91557863
   0.56905786  0.50000000  0.91557863
unknown system                          
           1
    13.657549    0.000000   -0.785588
     0.000000    3.104852    0.000000
    -0.127860    0.000000    9.886120
   Ir   O 
  10  20
Direct configuration=    18
   0.00000000  0.50000000  0.00000000
   0.50000000  0.00000000  0.00000000
   0.00280133  0.00000000  0.26723003
   0.50280133  0.50000000  0.26723003
  -0.00280133 -0.00000000  0.73276997
   0.49719867  0.50000000  0.73276997
   0.34300330 -0.00000000  0.47894667
   0.84300330  0.50000000  0.47894667
   0.65699670  0.00000000  0.52105333
   0.15699670  0.50000000  0.52105333
   0.57270975 -0.00000000  0.18608029
   0.07270975  0.50000000  0.18608029
   0.42729025  0.00000000  0.81391971
   0.92729025  0.50000000  0.81391971
   0.09016796  0.00000000  0.43182977
   0.59016796  0.50000000  0.43182977
   0.90983204  0.00000000  0.56817023
   0.40983204  0.50000000  0.56817023
   0.76555674 -0.00000000  0.39345209
   0.26555674  0.50000000  0.39345209
   0.23444326 -0.00000000  0.60654791
   0.73444326  0.50000000  0.60654791
   0.43261470  0.00000000  0.33584583
   0.93261470  0.50000000  0.33584583
   0.56738530 -0.00000000  0.66415417
   0.06738530  0.50000000  0.66415417
   0.93140814 -0.00000000  0.08505230
   0.43140814  0.50000000  0.08505230
   0.06859186 -0.00000000  0.91494770
   0.56859186  0.50000000  0.91494770
unknown system                          
           1
    13.672686    0.000000   -0.792791
     0.000000    3.105323    0.000000
    -0.132700    0.000000    9.895092
   Ir   O 
  10  20
Direct configuration=    19
   0.00000000  0.50000000  0.00000000
   0.50000000  0.00000000  0.00000000
   0.00294633  0.00000000  0.26711634
   0.50294633  0.50000000  0.26711634
  -0.00294633 -0.00000000  0.73288366
   0.49705367  0.50000000  0.73288366
   0.34300287 -0.00000000  0.47878270
   0.84300287  0.50000000  0.47878270
   0.65699713  0.00000000  0.52121730
   0.15699713  0.50000000  0.52121730
   0.57280773 -0.00000000  0.18610549
   0.07280773  0.50000000  0.18610549
   0.42719227  0.00000000  0.81389451
   0.92719227  0.50000000  0.81389451
   0.09013265  0.00000000  0.43200623
   0.59013265  0.50000000  0.43200623
   0.90986735  0.00000000  0.56799377
   0.40986735  0.50000000  0.56799377
   0.76543000 -0.00000000  0.39349243
   0.26543000  0.50000000  0.39349243
   0.23457000 -0.00000000  0.60650757
   0.73457000  0.50000000  0.60650757
   0.43272746  0.00000000  0.33568533
   0.93272746  0.50000000  0.33568533
   0.56727254 -0.00000000  0.66431467
   0.06727254  0.50000000  0.66431467
   0.93154551 -0.00000000  0.08523838
   0.43154551  0.50000000  0.08523838
   0.06845449 -0.00000000  0.91476162
   0.56845449  0.50000000  0.91476162
unknown system                          
           1
    13.672542    0.000000   -0.792722
     0.000000    3.105319    0.000000
    -0.132654    0.000000    9.895007
   Ir   O 
  10  20
Direct configuration=    20
   0.00000000  0.50000000  0.00000000
   0.50000000  0.00000000  0.00000000
   0.00337207  0.00000000  0.26736336
   0.50337207  0.50000000  0.26736336
  -0.00337207 -0.00000000  0.73263664
   0.49662793  0.50000000  0.73263664
   0.34313956 -0.00000000  0.47835262
   0.84313956  0.50000000  0.47835262
   0.65686044  0.00000000  0.52164738
   0.15686044  0.50000000  0.52164738
   0.57317337 -0.00000000  0.18595667
   0.07317337  0.50000000  0.18595667
   0.42682663  0.00000000  0.81404333
   0.92682663  0.50000000  0.81404333
   0.09021712  0.00000000  0.43210211
   0.59021712  0.50000000  0.43210211
   0.90978288  0.00000000  0.56789789
   0.40978288  0.50000000  0.56789789
   0.76532979 -0.00000000  0.39365417
   0.26532979  0.50000000  0.39365417
   0.23467021 -0.00000000  0.60634583
   0.73467021  0.50000000  0.60634583
   0.43277166  0.00000000  0.33519056
   0.93277166  0.50000000  0.33519056
   0.56722834 -0.00000000  0.66480944
   0.06722834  0.50000000  0.66480944
   0.93170371 -0.00000000  0.08554263
   0.43170371  0.50000000  0.08554263
   0.06829629 -0.00000000  0.91445737
   0.56829629  0.50000000  0.91445737
unknown system                          
           1
    13.664653    0.000000   -0.795237
     0.000000    3.103244    0.000000
    -0.134890    0.000000    9.886509
   Ir   O 
  10  20
Direct configuration=    21
   0.00000000  0.50000000  0.00000000
   0.50000000  0.00000000  0.00000000
   0.00336802  0.00000000  0.26736101
   0.50336802  0.50000000  0.26736101
  -0.00336802 -0.00000000  0.73263899
   0.49663198  0.50000000  0.73263899
   0.34313826 -0.00000000  0.47835670
   0.84313826  0.50000000  0.47835670
   0.65686174  0.00000000  0.52164330
   0.15686174  0.50000000  0.52164330
   0.57316989 -0.00000000  0.18595808
   0.07316989  0.50000000  0.18595808
   0.42683011  0.00000000  0.81404192
   0.92683011  0.50000000  0.81404192
   0.09021631  0.00000000  0.43210120
   0.59021631  0.50000000  0.43210120
   0.90978369  0.00000000  0.56789880
   0.40978369  0.50000000  0.56789880
   0.76533074 -0.00000000  0.39365263
   0.26533074  0.50000000  0.39365263
   0.23466926 -0.00000000  0.60634737
   0.73466926  0.50000000  0.60634737
   0.43277124  0.00000000  0.33519526
   0.93277124  0.50000000  0.33519526
   0.56722876 -0.00000000  0.66480474
   0.06722876  0.50000000  0.66480474
   0.93170220 -0.00000000  0.08553973
   0.43170220  0.50000000  0.08553973
   0.06829780 -0.00000000  0.91446027
   0.56829780  0.50000000  0.91446027
unknown system                          
           1
    13.665620    0.000000   -0.794929
     0.000000    3.103498    0.000000
    -0.134616    0.000000    9.887550
   Ir   O 
  10  20
Direct configuration=    22
   0.00000000  0.50000000  0.00000000
   0.50000000  0.00000000  0.00000000
   0.00378049  0.00000000  0.26746250
   0.50378049  0.50000000  0.26746250
  -0.00378049 -0.00000000  0.73253750
   0.49621951  0.50000000  0.73253750
   0.34318035 -0.00000000  0.47804054
   0.84318035  0.50000000  0.47804054
   0.65681965  0.00000000  0.52195946
   0.15681965  0.50000000  0.52195946
   0.57351434 -0.00000000  0.18574956
   0.07351434  0.50000000  0.18574956
   0.42648566 -0.00000000  0.81425044
   0.92648566  0.50000000  0.81425044
   0.09042624  0.00000000  0.43217235
   0.59042624  0.50000000  0.43217235
   0.90957376  0.00000000  0.56782765
   0.40957376  0.50000000  0.56782765
   0.76527444 -0.00000000  0.39399727
   0.26527444  0.50000000  0.39399727
   0.23472556 -0.00000000  0.60600273
   0.73472556  0.50000000  0.60600273
   0.43268204  0.00000000  0.33476961
   0.93268204  0.50000000  0.33476961
   0.56731796 -0.00000000  0.66523039
   0.06731796  0.50000000  0.66523039
   0.93191201 -0.00000000  0.08578637
   0.43191201  0.50000000  0.08578637
   0.06808799 -0.00000000  0.91421363
   0.56808799  0.50000000  0.91421363
unknown system                          
           1
    13.660212    0.000000   -0.789535
     0.000000    3.105816    0.000000
    -0.130723    0.000000    9.886474