Automatically generated mesh
     126
Reciprocal lattice
    0.00000000000000    0.00000000000000    0.00000000000000             1
    0.25000000000000    0.00000000000000    0.00000000000000             2
    0.50000000000000    0.00000000000000    0.00000000000000             1
    0.00000000000000    0.08333333333333    0.00000000000000             2
    0.25000000000000    0.08333333333333    0.00000000000000             4
    0.50000000000000    0.08333333333333    0.00000000000000             2
    0.00000000000000    0.16666666666667    0.00000000000000             2
    0.25000000000000    0.16666666666667    0.00000000000000             4
    0.50000000000000    0.16666666666667    0.00000000000000             2
    0.00000000000000    0.25000000000000    0.00000000000000             2
    0.25000000000000    0.25000000000000    0.00000000000000             4
    0.50000000000000    0.25000000000000    0.00000000000000             2
    0.00000000000000    0.33333333333333    0.00000000000000             2
    0.25000000000000    0.33333333333333    0.00000000000000             4
    0.50000000000000    0.33333333333333    0.00000000000000             2
    0.00000000000000    0.41666666666667    0.00000000000000             2
    0.25000000000000    0.41666666666667    0.00000000000000             4
    0.50000000000000    0.41666666666667    0.00000000000000             2
    0.00000000000000    0.50000000000000    0.00000000000000             1
    0.25000000000000    0.50000000000000    0.00000000000000             2
    0.50000000000000    0.50000000000000    0.00000000000000             1
    0.00000000000000    0.00000000000000    0.12500000000000             2
    0.25000000000000    0.00000000000000    0.12500000000000             2
    0.50000000000000    0.00000000000000    0.12500000000000             2
   -0.25000000000000    0.00000000000000    0.12500000000000             2
    0.00000000000000    0.08333333333333    0.12500000000000             4
    0.25000000000000    0.08333333333333    0.12500000000000             4
    0.50000000000000    0.08333333333333    0.12500000000000             4
   -0.25000000000000    0.08333333333333    0.12500000000000             4
    0.00000000000000    0.16666666666667    0.12500000000000             4
    0.25000000000000    0.16666666666667    0.12500000000000             4
    0.50000000000000    0.16666666666667    0.12500000000000             4
   -0.25000000000000    0.16666666666667    0.12500000000000             4
    0.00000000000000    0.25000000000000    0.12500000000000             4
    0.25000000000000    0.25000000000000    0.12500000000000             4
    0.50000000000000    0.25000000000000    0.12500000000000             4
   -0.25000000000000    0.25000000000000    0.12500000000000             4
    0.00000000000000    0.33333333333333    0.12500000000000             4
    0.25000000000000    0.33333333333333    0.12500000000000             4
    0.50000000000000    0.33333333333333    0.12500000000000             4
   -0.25000000000000    0.33333333333333    0.12500000000000             4
    0.00000000000000    0.41666666666667    0.12500000000000             4
    0.25000000000000    0.41666666666667    0.12500000000000             4
    0.50000000000000    0.41666666666667    0.12500000000000             4
   -0.25000000000000    0.41666666666667    0.12500000000000             4
    0.00000000000000    0.50000000000000    0.12500000000000             2
    0.25000000000000    0.50000000000000    0.12500000000000             2
    0.50000000000000    0.50000000000000    0.12500000000000             2
   -0.25000000000000    0.50000000000000    0.12500000000000             2
    0.00000000000000    0.00000000000000    0.25000000000000             2
    0.25000000000000    0.00000000000000    0.25000000000000             2
    0.50000000000000    0.00000000000000    0.25000000000000             2
   -0.25000000000000    0.00000000000000    0.25000000000000             2
    0.00000000000000    0.08333333333333    0.25000000000000             4
    0.25000000000000    0.08333333333333    0.25000000000000             4
    0.50000000000000    0.08333333333333    0.25000000000000             4
   -0.25000000000000    0.08333333333333    0.25000000000000             4
    0.00000000000000    0.16666666666667    0.25000000000000             4
    0.25000000000000    0.16666666666667    0.25000000000000             4
    0.50000000000000    0.16666666666667    0.25000000000000             4
   -0.25000000000000    0.16666666666667    0.25000000000000             4
    0.00000000000000    0.25000000000000    0.25000000000000             4
    0.25000000000000    0.25000000000000    0.25000000000000             4
    0.50000000000000    0.25000000000000    0.25000000000000             4
   -0.25000000000000    0.25000000000000    0.25000000000000             4
    0.00000000000000    0.33333333333333    0.25000000000000             4
    0.25000000000000    0.33333333333333    0.25000000000000             4
    0.50000000000000    0.33333333333333    0.25000000000000             4
   -0.25000000000000    0.33333333333333    0.25000000000000             4
    0.00000000000000    0.41666666666667    0.25000000000000             4
    0.25000000000000    0.41666666666667    0.25000000000000             4
    0.50000000000000    0.41666666666667    0.25000000000000             4
   -0.25000000000000    0.41666666666667    0.25000000000000             4
    0.00000000000000    0.50000000000000    0.25000000000000             2
    0.25000000000000    0.50000000000000    0.25000000000000             2
    0.50000000000000    0.50000000000000    0.25000000000000             2
   -0.25000000000000    0.50000000000000    0.25000000000000             2
    0.00000000000000    0.00000000000000    0.37500000000000             2
    0.25000000000000    0.00000000000000    0.37500000000000             2
    0.50000000000000    0.00000000000000    0.37500000000000             2
   -0.25000000000000    0.00000000000000    0.37500000000000             2
    0.00000000000000    0.08333333333333    0.37500000000000             4
    0.25000000000000    0.08333333333333    0.37500000000000             4
    0.50000000000000    0.08333333333333    0.37500000000000             4
   -0.25000000000000    0.08333333333333    0.37500000000000             4
    0.00000000000000    0.16666666666667    0.37500000000000             4
    0.25000000000000    0.16666666666667    0.37500000000000             4
    0.50000000000000    0.16666666666667    0.37500000000000             4
   -0.25000000000000    0.16666666666667    0.37500000000000             4
    0.00000000000000    0.25000000000000    0.37500000000000             4
    0.25000000000000    0.25000000000000    0.37500000000000             4
    0.50000000000000    0.25000000000000    0.37500000000000             4
   -0.25000000000000    0.25000000000000    0.37500000000000             4
    0.00000000000000    0.33333333333333    0.37500000000000             4
    0.25000000000000    0.33333333333333    0.37500000000000             4
    0.50000000000000    0.33333333333333    0.37500000000000             4
   -0.25000000000000    0.33333333333333    0.37500000000000             4
    0.00000000000000    0.41666666666667    0.37500000000000             4
    0.25000000000000    0.41666666666667    0.37500000000000             4
    0.50000000000000    0.41666666666667    0.37500000000000             4
   -0.25000000000000    0.41666666666667    0.37500000000000             4
    0.00000000000000    0.50000000000000    0.37500000000000             2
    0.25000000000000    0.50000000000000    0.37500000000000             2
    0.50000000000000    0.50000000000000    0.37500000000000             2
   -0.25000000000000    0.50000000000000    0.37500000000000             2
    0.00000000000000    0.00000000000000    0.50000000000000             1
    0.25000000000000    0.00000000000000    0.50000000000000             2
    0.50000000000000    0.00000000000000    0.50000000000000             1
    0.00000000000000    0.08333333333333    0.50000000000000             2
    0.25000000000000    0.08333333333333    0.50000000000000             4
    0.50000000000000    0.08333333333333    0.50000000000000             2
    0.00000000000000    0.16666666666667    0.50000000000000             2
    0.25000000000000    0.16666666666667    0.50000000000000             4
    0.50000000000000    0.16666666666667    0.50000000000000             2
    0.00000000000000    0.25000000000000    0.50000000000000             2
    0.25000000000000    0.25000000000000    0.50000000000000             4
    0.50000000000000    0.25000000000000    0.50000000000000             2
    0.00000000000000    0.33333333333333    0.50000000000000             2
    0.25000000000000    0.33333333333333    0.50000000000000             4
    0.50000000000000    0.33333333333333    0.50000000000000             2
    0.00000000000000    0.41666666666667    0.50000000000000             2
    0.25000000000000    0.41666666666667    0.50000000000000             4
    0.50000000000000    0.41666666666667    0.50000000000000             2
    0.00000000000000    0.50000000000000    0.50000000000000             1
    0.25000000000000    0.50000000000000    0.50000000000000             2
    0.50000000000000    0.50000000000000    0.50000000000000             1
Tetrahedra
      1152    0.00043402777778
         2         1         2         5        22
         2         1         4         5        22
         2         4         5        22        26
         2         2         5        22        23
         2         5        22        23        27
         2         5        22        26        27
         2         2         3         6        23
         2         2         5         6        23
         2         5         6        23        27
         2         3         6        23        24
         2         6        23        24        28
         2         6        23        27        28
         2         2         3         5        24
         2         3         5         6        24
         2         5         6        24        28
         2         2         5        24        25
         2         5        24        25        29
         2         5        24        28        29
         2         1         2         4        25
         2         2         4         5        25
         2         4         5        25        29
         2         1         4        22        25
         2         4        22        25        26
         2         4        25        26        29
         2         4         5         8        26
         2         4         7         8        26
         2         7         8        26        30
         2         5         8        26        27
         2         8        26        27        31
         2         8        26        30        31
         2         5         6         9        27
         2         5         8         9        27
         2         8         9        27        31
         2         6         9        27        28
         2         9        27        28        32
         2         9        27        31        32
         2         5         6         8        28
         2         6         8         9        28
         2         8         9        28        32
         2         5         8        28        29
         2         8        28        29        33
         2         8        28        32        33
         2         4         5         7        29
         2         5         7         8        29
         2         7         8        29        33
         2         4         7        26        29
         2         7        26        29        30
         2         7        29        30        33
         2         7         8        11        30
         2         7        10        11        30
         2        10        11        30        34
         2         8        11        30        31
         2        11        30        31        35
         2        11        30        34        35
         2         8         9        12        31
         2         8        11        12        31
         2        11        12        31        35
         2         9        12        31        32
         2        12        31        32        36
         2        12        31        35        36
         2         8         9        11        32
         2         9        11        12        32
         2        11        12        32        36
         2         8        11        32        33
         2        11        32        33        37
         2        11        32        36        37
         2         7         8        10        33
         2         8        10        11        33
         2        10        11        33        37
         2         7        10        30        33
         2        10        30        33        34
         2        10        33        34        37
         2        10        11        14        34
         2        10        13        14        34
         2        13        14        34        38
         2        11        14        34        35
         2        14        34        35        39
         2        14        34        38        39
         2        11        12        15        35
         2        11        14        15        35
         2        14        15        35        39
         2        12        15        35        36
         2        15        35        36        40
         2        15        35        39        40
         2        11        12        14        36
         2        12        14        15        36
         2        14        15        36        40
         2        11        14        36        37
         2        14        36        37        41
         2        14        36        40        41
         2        10        11        13        37
         2        11        13        14        37
         2        13        14        37        41
         2        10        13        34        37
         2        13        34        37        38
         2        13        37        38        41
         2        13        14        17        38
         2        13        16        17        38
         2        16        17        38        42
         2        14        17        38        39
         2        17        38        39        43
         2        17        38        42        43
         2        14        15        18        39
         2        14        17        18        39
         2        17        18        39        43
         2        15        18        39        40
         2        18        39        40        44
         2        18        39        43        44
         2        14        15        17        40
         2        15        17        18        40
         2        17        18        40        44
         2        14        17        40        41
         2        17        40        41        45
         2        17        40        44        45
         2        13        14        16        41
         2        14        16        17        41
         2        16        17        41        45
         2        13        16        38        41
         2        16        38        41        42
         2        16        41        42        45
         2        16        17        20        42
         2        16        19        20        42
         2        19        20        42        46
         2        17        20        42        43
         2        20        42        43        47
         2        20        42        46        47
         2        17        18        21        43
         2        17        20        21        43
         2        20        21        43        47
         2        18        21        43        44
         2        21        43        44        48
         2        21        43        47        48
         2        17        18        20        44
         2        18        20        21        44
         2        20        21        44        48
         2        17        20        44        45
         2        20        44        45        49
         2        20        44        48        49
         2        16        17        19        45
         2        17        19        20        45
         2        19        20        45        49
         2        16        19        42        45
         2        19        42        45        46
         2        19        45        46        49
         2        17        19        20        46
         2        16        17        19        46
         2        16        17        42        46
         2        17        20        46        47
         2        17        43        46        47
         2        17        42        43        46
         2        18        20        21        47
         2        17        18        20        47
         2        17        18        43        47
         2        18        21        47        48
         2        18        44        47        48
         2        18        43        44        47
         2        17        20        21        48
         2        17        18        21        48
         2        17        18        44        48
         2        17        20        48        49
         2        17        45        48        49
         2        17        44        45        48
         2        16        19        20        49
         2        16        17        20        49
         2        16        17        45        49
         2        16        19        46        49
         2        16        42        46        49
         2        16        42        45        49
         2        14        16        17        42
         2        13        14        16        42
         2        13        14        38        42
         2        14        17        42        43
         2        14        39        42        43
         2        14        38        39        42
         2        15        17        18        43
         2        14        15        17        43
         2        14        15        39        43
         2        15        18        43        44
         2        15        40        43        44
         2        15        39        40        43
         2        14        17        18        44
         2        14        15        18        44
         2        14        15        40        44
         2        14        17        44        45
         2        14        41        44        45
         2        14        40        41        44
         2        13        16        17        45
         2        13        14        17        45
         2        13        14        41        45
         2        13        16        42        45
         2        13        38        42        45
         2        13        38        41        45
         2        11        13        14        38
         2        10        11        13        38
         2        10        11        34        38
         2        11        14        38        39
         2        11        35        38        39
         2        11        34        35        38
         2        12        14        15        39
         2        11        12        14        39
         2        11        12        35        39
         2        12        15        39        40
         2        12        36        39        40
         2        12        35        36        39
         2        11        14        15        40
         2        11        12        15        40
         2        11        12        36        40
         2        11        14        40        41
         2        11        37        40        41
         2        11        36        37        40
         2        10        13        14        41
         2        10        11        14        41
         2        10        11        37        41
         2        10        13        38        41
         2        10        34        38        41
         2        10        34        37        41
         2         8        10        11        34
         2         7         8        10        34
         2         7         8        30        34
         2         8        11        34        35
         2         8        31        34        35
         2         8        30        31        34
         2         9        11        12        35
         2         8         9        11        35
         2         8         9        31        35
         2         9        12        35        36
         2         9        32        35        36
         2         9        31        32        35
         2         8        11        12        36
         2         8         9        12        36
         2         8         9        32        36
         2         8        11        36        37
         2         8        33        36        37
         2         8        32        33        36
         2         7        10        11        37
         2         7         8        11        37
         2         7         8        33        37
         2         7        10        34        37
         2         7        30        34        37
         2         7        30        33        37
         2         5         7         8        30
         2         4         5         7        30
         2         4         5        26        30
         2         5         8        30        31
         2         5        27        30        31
         2         5        26        27        30
         2         6         8         9        31
         2         5         6         8        31
         2         5         6        27        31
         2         6         9        31        32
         2         6        28        31        32
         2         6        27        28        31
         2         5         8         9        32
         2         5         6         9        32
         2         5         6        28        32
         2         5         8        32        33
         2         5        29        32        33
         2         5        28        29        32
         2         4         7         8        33
         2         4         5         8        33
         2         4         5        29        33
         2         4         7        30        33
         2         4        26        30        33
         2         4        26        29        33
         2         2         4         5        26
         2         1         2         4        26
         2         1         2        22        26
         2         2         5        26        27
         2         2        23        26        27
         2         2        22        23        26
         2         3         5         6        27
         2         2         3         5        27
         2         2         3        23        27
         2         3         6        27        28
         2         3        24        27        28
         2         3        23        24        27
         2         2         5         6        28
         2         2         3         6        28
         2         2         3        24        28
         2         2         5        28        29
         2         2        25        28        29
         2         2        24        25        28
         2         1         4         5        29
         2         1         2         5        29
         2         1         2        25        29
         2         1         4        26        29
         2         1        22        26        29
         2         1        22        25        29
         2        22        23        27        50
         2        22        26        27        50
         2        26        27        50        54
         2        23        27        50        51
         2        27        50        51        55
         2        27        50        54        55
         2        23        24        28        51
         2        23        27        28        51
         2        27        28        51        55
         2        24        28        51        52
         2        28        51        52        56
         2        28        51        55        56
         2        24        25        29        52
         2        24        28        29        52
         2        28        29        52        56
         2        25        29        52        53
         2        29        52        53        57
         2        29        52        56        57
         2        22        25        26        53
         2        25        26        29        53
         2        26        29        53        57
         2        22        26        50        53
         2        26        50        53        54
         2        26        53        54        57
         2        26        27        31        54
         2        26        30        31        54
         2        30        31        54        58
         2        27        31        54        55
         2        31        54        55        59
         2        31        54        58        59
         2        27        28        32        55
         2        27        31        32        55
         2        31        32        55        59
         2        28        32        55        56
         2        32        55        56        60
         2        32        55        59        60
         2        28        29        33        56
         2        28        32        33        56
         2        32        33        56        60
         2        29        33        56        57
         2        33        56        57        61
         2        33        56        60        61
         2        26        29        30        57
         2        29        30        33        57
         2        30        33        57        61
         2        26        30        54        57
         2        30        54        57        58
         2        30        57        58        61
         2        30        31        35        58
         2        30        34        35        58
         2        34        35        58        62
         2        31        35        58        59
         2        35        58        59        63
         2        35        58        62        63
         2        31        32        36        59
         2        31        35        36        59
         2        35        36        59        63
         2        32        36        59        60
         2        36        59        60        64
         2        36        59        63        64
         2        32        33        37        60
         2        32        36        37        60
         2        36        37        60        64
         2        33        37        60        61
         2        37        60        61        65
         2        37        60        64        65
         2        30        33        34        61
         2        33        34        37        61
         2        34        37        61        65
         2        30        34        58        61
         2        34        58        61        62
         2        34        61        62        65
         2        34        35        39        62
         2        34        38        39        62
         2        38        39        62        66
         2        35        39        62        63
         2        39        62        63        67
         2        39        62        66        67
         2        35        36        40        63
         2        35        39        40        63
         2        39        40        63        67
         2        36        40        63        64
         2        40        63        64        68
         2        40        63        67        68
         2        36        37        41        64
         2        36        40        41        64
         2        40        41        64        68
         2        37        41        64        65
         2        41        64        65        69
         2        41        64        68        69
         2        34        37        38        65
         2        37        38        41        65
         2        38        41        65        69
         2        34        38        62        65
         2        38        62        65        66
         2        38        65        66        69
         2        38        39        43        66
         2        38        42        43        66
         2        42        43        66        70
         2        39        43        66        67
         2        43        66        67        71
         2        43        66        70        71
         2        39        40        44        67
         2        39        43        44        67
         2        43        44        67        71
         2        40        44        67        68
         2        44        67        68        72
         2        44        67        71        72
         2        40        41        45        68
         2        40        44        45        68
         2        44        45        68        72
         2        41        45        68        69
         2        45        68        69        73