 running on   96 total cores
 distrk:  each k-point on   96 cores,    1 groups
 distr:  one band on   12 cores,    8 groups
 using from now: INCAR     
 vasp.5.4.1 24Jun15 (build Nov 16 2016 17:59:42) complex                        
  
 POSCAR found type information on POSCAR  Sr Ir O 
 POSCAR found :  3 types and      31 ions
 scaLAPACK will be used

 ----------------------------------------------------------------------------- 
|                                                                             |
|  ADVICE TO THIS USER RUNNING 'VASP/VAMP'   (HEAR YOUR MASTER'S VOICE ...):  |
|                                                                             |
|      You have a (more or less) 'large supercell' and for larger cells       |
|      it might be more efficient to use real space projection opertators     |
|      So try LREAL= Auto  in the INCAR   file.                               |
|      Mind: At the moment your POTCAR file does not contain real space       |
|       projectors, and has to be modified,  BUT if you                       |
|      want to do an extremely  accurate calculation you might also keep the  |
|      reciprocal projection scheme          (i.e. LREAL=.FALSE.)             |
|                                                                             |
 ----------------------------------------------------------------------------- 

 LDA part: xc-table for Pade appr. of Perdew
 POSCAR, INCAR and KPOINTS ok, starting setup
 WARNING: small aliasing (wrap around) errors must be expected
 FFT: planning ...
 WAVECAR not read
 entering main loop
       N       E                     dE             d eps       ncg     rms          rms(c)
DAV:   1     0.212666111093E+04    0.21267E+04   -0.92116E+04 72576   0.121E+03
DAV:   2     0.227151133490E+02   -0.21039E+04   -0.19704E+04 75032   0.393E+02
DAV:   3    -0.238592413836E+03   -0.26131E+03   -0.24926E+03 92984   0.147E+02
DAV:   4    -0.249862500153E+03   -0.11270E+02   -0.11106E+02 91840   0.316E+01
DAV:   5    -0.250340266095E+03   -0.47777E+00   -0.47691E+00116384   0.529E+00    0.104E+02
RMM:   6    -0.217184977991E+03    0.33155E+02   -0.19093E+02 73817   0.339E+01    0.576E+01
RMM:   7    -0.221259180043E+03   -0.40742E+01   -0.24056E+01 75902   0.131E+01    0.454E+01
RMM:   8    -0.219258992443E+03    0.20002E+01   -0.16574E+01 76829   0.111E+01    0.371E+01
RMM:   9    -0.214586384611E+03    0.46726E+01   -0.74411E+00 76793   0.707E+00    0.216E+01
RMM:  10    -0.211605565823E+03    0.29808E+01   -0.37895E+00 77225   0.494E+00    0.154E+01
RMM:  11    -0.210901621584E+03    0.70394E+00   -0.68026E-01 79776   0.222E+00    0.974E+00
RMM:  12    -0.210931635157E+03   -0.30014E-01   -0.18951E-01 78489   0.115E+00    0.820E+00
RMM:  13    -0.210992831263E+03   -0.61196E-01   -0.58226E-02 83058   0.605E-01    0.610E+00
RMM:  14    -0.211202772672E+03   -0.20994E+00   -0.94522E-02 77252   0.746E-01    0.466E+00
RMM:  15    -0.211455242994E+03   -0.25247E+00   -0.98950E-02 76974   0.746E-01    0.409E+00
RMM:  16    -0.211614712949E+03   -0.15947E+00   -0.77783E-02 77851   0.604E-01    0.310E+00
RMM:  17    -0.211762114885E+03   -0.14740E+00   -0.12181E-01 75643   0.704E-01    0.160E+00
RMM:  18    -0.211792884785E+03   -0.30770E-01   -0.43687E-02 81462   0.426E-01    0.109E+00
RMM:  19    -0.211790748059E+03    0.21367E-02   -0.57748E-03 92680   0.141E-01    0.755E-01
RMM:  20    -0.211793390019E+03   -0.26420E-02   -0.28905E-03 81286   0.121E-01    0.642E-01
RMM:  21    -0.211794234397E+03   -0.84438E-03   -0.27974E-03 82400   0.121E-01    0.299E-01
RMM:  22    -0.211795289202E+03   -0.10548E-02   -0.78192E-04 84067   0.644E-02    0.240E-01
RMM:  23    -0.211795795129E+03   -0.50593E-03   -0.28933E-04 84240   0.381E-02    0.171E-01
RMM:  24    -0.211796285157E+03   -0.49003E-03   -0.21106E-04 82054   0.308E-02    0.969E-02
RMM:  25    -0.211796502296E+03   -0.21714E-03   -0.10890E-04 83627   0.233E-02    0.717E-02
RMM:  26    -0.211796612175E+03   -0.10988E-03   -0.87269E-05 79323   0.230E-02    0.529E-02
RMM:  27    -0.211796609127E+03    0.30485E-05   -0.25942E-05 83641   0.134E-02    0.454E-02
RMM:  28    -0.211796593478E+03    0.15649E-04   -0.14744E-05 81431   0.101E-02    0.317E-02
RMM:  29    -0.211796605010E+03   -0.11532E-04   -0.10318E-05 82378   0.872E-03    0.229E-02
RMM:  30    -0.211796605418E+03   -0.40874E-06   -0.83736E-06 83140   0.787E-03    0.233E-02
RMM:  31    -0.211796607119E+03   -0.17002E-05   -0.13037E-06 76534   0.459E-03    0.239E-02
RMM:  32    -0.211796607614E+03   -0.49510E-06   -0.26073E-06 77857   0.448E-03    0.253E-02
RMM:  33    -0.211796608135E+03   -0.52156E-06   -0.20891E-06 76151   0.438E-03    0.236E-02
RMM:  34    -0.211796603341E+03    0.47945E-05   -0.74164E-05 74744   0.229E-02    0.186E-02
RMM:  35    -0.211796614489E+03   -0.11148E-04   -0.37216E-05 77217   0.165E-02    0.159E-02
RMM:  36    -0.211796624534E+03   -0.10045E-04   -0.71262E-06 75020   0.959E-03    0.909E-03
RMM:  37    -0.211796626033E+03   -0.14993E-05   -0.66973E-06 76170   0.728E-03    0.705E-03
RMM:  38    -0.211796629109E+03   -0.30761E-05   -0.36693E-06 74772   0.608E-03    0.578E-03
RMM:  39    -0.211796629943E+03   -0.83336E-06   -0.57235E-07 67400   0.232E-03    0.201E-03
RMM:  40    -0.211796630998E+03   -0.10553E-05   -0.11202E-07 45619   0.110E-03    0.148E-03
WARNING in EDDRMM: call to ZHEGV failed, returncode =   6  3 18
RMM:  41    -0.211796631122E+03   -0.12369E-06   -0.63986E-08 42715   0.814E-04    0.779E-04
RMM:  42    -0.211796631035E+03    0.86427E-07   -0.24116E-08 41534   0.564E-04
   1 F= -.21179663E+03 E0= -.21179663E+03  d E =0.000000E+00  mag=    -0.0000
