unknown system                          
           1
    13.327295    0.000000   -0.735420
     0.000000    3.120751    0.000000
    -0.089034    0.000000    9.853913
   Sr   Ir   O 
   1  10  20
Direct configuration=     1
   0.75128463  0.50000000  0.15994495
   0.98329486  0.50000000  0.00464035
   0.51073782  0.00000000  0.99519172
   0.00161374  0.00000000  0.25748852
   0.51409907  0.50000000  0.26868617
   0.98736446  0.00000000  0.73380864
   0.50098354  0.50000000  0.73616279
   0.34633825  0.00000000  0.47942330
   0.83768070  0.50000000  0.47628893
   0.66505570  0.00000000  0.52799600
   0.15203329  0.50000000  0.51674053
   0.59560813  0.00000000  0.18058620
   0.07523717  0.50000000  0.17842972
   0.42723886  0.00000000  0.81669256
   0.91383692  0.50000000  0.81626418
   0.08829002  0.00000000  0.42096392
   0.59841753  0.50000000  0.43720901
   0.90510592  0.00000000  0.56347144
   0.41127009  0.50000000  0.57315540
   0.76406681  0.00000000  0.36860786
   0.26771174  0.50000000  0.39389076
   0.23088071  0.00000000  0.60219991
   0.73790323  0.50000000  0.62464296
   0.43677609  0.00000000  0.33007748
   0.92187713  0.50000000  0.31900201
   0.57426741  0.00000000  0.67061974
   0.06233435  0.50000000  0.66620522
   0.89717225  0.00000000  0.08557611
   0.44748730  0.50000000  0.08341138
   0.05283592  0.00000000  0.92244564
   0.58779635  0.50000000  0.91437659
