       N       E                     dE             d eps       ncg     rms          rms(c)
DAV:   1     0.183531573653E+04    0.18353E+04   -0.87119E+04 71952   0.120E+03
DAV:   2     0.246742337195E+02   -0.18106E+04   -0.16951E+04 73968   0.374E+02
DAV:   3    -0.210179774873E+03   -0.23485E+03   -0.22612E+03 96648   0.137E+02
DAV:   4    -0.221817416807E+03   -0.11638E+02   -0.11522E+02 99200   0.310E+01
DAV:   5    -0.222461936401E+03   -0.64452E+00   -0.64373E+00121000   0.542E+00    0.132E+02
RMM:   6    -0.189439912388E+03    0.33022E+02   -0.19047E+02 78463   0.343E+01    0.576E+01
RMM:   7    -0.188825240670E+03    0.61467E+00   -0.22554E+01 78677   0.127E+01    0.393E+01
RMM:   8    -0.196846958872E+03   -0.80217E+01   -0.21782E+01 81846   0.122E+01    0.342E+01
RMM:   9    -0.185998968344E+03    0.10848E+02   -0.65621E+00 79193   0.707E+00    0.740E+00
RMM:  10    -0.186095171246E+03   -0.96203E-01   -0.11712E+00 93896   0.237E+00    0.483E+00
RMM:  11    -0.186139305658E+03   -0.44134E-01   -0.17209E-01 98218   0.901E-01    0.403E+00
RMM:  12    -0.186246537108E+03   -0.10723E+00   -0.81934E-02 90607   0.685E-01    0.310E+00
RMM:  13    -0.186328321913E+03   -0.81785E-01   -0.76986E-02 83683   0.682E-01    0.205E+00
RMM:  14    -0.186423269349E+03   -0.94947E-01   -0.86572E-02 82761   0.671E-01    0.152E+00
RMM:  15    -0.186446499565E+03   -0.23230E-01   -0.29314E-02 86565   0.387E-01    0.130E+00
RMM:  16    -0.186451286701E+03   -0.47871E-02   -0.14352E-02 85493   0.283E-01    0.838E-01
RMM:  17    -0.186450222372E+03    0.10643E-02   -0.37778E-03 89383   0.148E-01    0.498E-01
RMM:  18    -0.186451704950E+03   -0.14826E-02   -0.17406E-03 92556   0.986E-02    0.488E-01
RMM:  19    -0.186451828761E+03   -0.12381E-03   -0.78952E-04 87645   0.692E-02    0.252E-01
RMM:  20    -0.186452063917E+03   -0.23516E-03   -0.71107E-04 86909   0.614E-02    0.150E-01
RMM:  21    -0.186452381933E+03   -0.31802E-03   -0.30736E-04 88608   0.421E-02    0.130E-01
RMM:  22    -0.186452446259E+03   -0.64326E-04   -0.14792E-04 79073   0.296E-02    0.121E-01
RMM:  23    -0.186452560545E+03   -0.11429E-03   -0.11096E-04 78196   0.262E-02    0.799E-02
RMM:  24    -0.186452660185E+03   -0.99640E-04   -0.40396E-05 69189   0.167E-02    0.544E-02
RMM:  25    -0.186452725360E+03   -0.65175E-04   -0.20816E-05 58508   0.131E-02    0.331E-02
RMM:  26    -0.186452785551E+03   -0.60191E-04   -0.10571E-05 52148   0.101E-02    0.267E-02
RMM:  27    -0.186452823852E+03   -0.38301E-04   -0.52885E-06 49245   0.746E-03    0.256E-02
RMM:  28    -0.186452841454E+03   -0.17602E-04   -0.28735E-06 47686   0.543E-03    0.256E-02
RMM:  29    -0.186452800894E+03    0.40560E-04   -0.20023E-06 46682   0.493E-03    0.276E-02
RMM:  30    -0.186452815506E+03   -0.14612E-04   -0.91934E-07 41185   0.319E-03    0.260E-02
RMM:  31    -0.186452842251E+03   -0.26744E-04   -0.37293E-06 46415   0.529E-03    0.280E-02
RMM:  32    -0.186452878440E+03   -0.36190E-04   -0.23139E-06 44159   0.405E-03    0.299E-02
RMM:  33    -0.186452871569E+03    0.68719E-05   -0.54127E-07 36647   0.273E-03
   1 F= -.18645287E+03 E0= -.18645287E+03  d E =0.000000E+00  mag=     1.3902
