SrIr2O4 prototype                       
           1
     5.232830    0.066269   -0.000005
     0.069004    5.340950   -0.000001
     0.000017    0.000032   15.499907
   Sr   Ir   O 
   4   8  16
Direct configuration=     1
   0.47420066  0.02782784  0.12499973
   0.52579259  0.97217033  0.37500079
   0.47420655  0.02782985  0.62500034
   0.52579733  0.97217400  0.87500044
   0.99999998  0.00000120  0.25000049
   0.00000158  0.99999981  0.99999952
   0.49999957  0.49999988  0.24999976
   0.50000079  0.49999664  0.99999983
   0.99999978  0.00000105  0.75000007
   0.00000024  0.00000140  0.49999976
   0.49999965  0.50000185  0.74999985
   0.49999978  0.50000189  0.50000010
   0.29082404  0.21049988  0.48305773
   0.77737592  0.27640096  0.24906690
   0.77738467  0.27640455  0.00093715
   0.70916795  0.78950772  0.01694472
   0.22262590  0.72359982  0.25093689
   0.70917195  0.78950139  0.23306263
   0.22262076  0.72359813  0.49906841
   0.29082568  0.21049736  0.26693804
   0.29084683  0.21047766  0.98306486
   0.77737190  0.27639315  0.74907315
   0.77737896  0.27640223  0.50093254
   0.70916511  0.78950856  0.51693737
   0.22263081  0.72361145  0.75092602
   0.70917546  0.78950041  0.73305629
   0.22261895  0.72358957  0.99905656
   0.29081672  0.21050147  0.76694005
