   34   34  901    2
  0.1127375E+02  0.1392900E-08  0.2845900E-09  0.9678000E-09  0.5000000E-15
  1.000000000000000E-004
  CAR 
 unknown system                          
    250     12    160
 
  0.2500000E+00  0.8333333E-01  0.1250000E+00  0.8333333E-01
    1      -29.048630    -29.048630   1.000000   1.000000
    2      -29.048367    -29.048367   1.000000   1.000000
    3      -29.041519    -29.041519   1.000000   1.000000
    4      -29.041335    -29.041335   1.000000   1.000000
    5      -14.557260    -14.557260   1.000000   1.000000
    6      -14.444950    -14.444950   1.000000   1.000000
    7      -14.280120    -14.280120   1.000000   1.000000
    8      -13.966615    -13.966615   1.000000   1.000000
    9      -13.961492    -13.961492   1.000000   1.000000
   10      -13.933518    -13.933518   1.000000   1.000000
   11      -13.709546    -13.709546   1.000000   1.000000
   12      -13.628809    -13.628809   1.000000   1.000000
   13      -13.374701    -13.374701   1.000000   1.000000
   14      -13.369736    -13.369736   1.000000   1.000000
   15      -13.259087    -13.259087   1.000000   1.000000
   16      -13.253785    -13.253785   1.000000   1.000000
   17      -13.190809    -13.190809   1.000000   1.000000
   18      -13.178187    -13.178187   1.000000   1.000000
   19      -13.047152    -13.047152   1.000000   1.000000
   20      -12.959974    -12.959974   1.000000   1.000000
   21      -12.866791    -12.866791   1.000000   1.000000
   22      -12.858152    -12.858152   1.000000   1.000000
   23      -12.778908    -12.778908   1.000000   1.000000
   24      -12.688753    -12.688753   1.000000   1.000000
   25      -10.868569    -10.868569   1.000000   1.000000
   26      -10.853395    -10.853395   1.000000   1.000000
   27      -10.754425    -10.754425   1.000000   1.000000
   28      -10.721728    -10.721728   1.000000   1.000000
   29      -10.687719    -10.687719   1.000000   1.000000
   30      -10.653462    -10.653462   1.000000   1.000000
   31      -10.619997    -10.619997   1.000000   1.000000
   32      -10.593020    -10.593020   1.000000   1.000000
   33      -10.589902    -10.589902   1.000000   1.000000
   34      -10.581982    -10.581982   1.000000   1.000000
   35      -10.576729    -10.576729   1.000000   1.000000
   36      -10.552619    -10.552619   1.000000   1.000000
   37       -2.262510     -2.262510   1.000000   1.000000
   38       -2.219012     -2.219012   1.000000   1.000000
   39       -2.126462     -2.126462   1.000000   1.000000
   40       -2.040811     -2.040811   1.000000   1.000000
   41       -2.016368     -2.016368   1.000000   1.000000
   42       -1.846945     -1.846945   1.000000   1.000000
   43       -1.827045     -1.827045   1.000000   1.000000
   44       -1.714146     -1.714146   1.000000   1.000000
   45       -1.344521     -1.344521   1.000000   1.000000
   46       -1.307574     -1.307574   1.000000   1.000000
   47       -1.204553     -1.204553   1.000000   1.000000
   48       -1.191189     -1.191189   1.000000   1.000000
   49       -1.133558     -1.133558   1.000000   1.000000
   50       -1.097121     -1.097121   1.000000   1.000000
   51       -0.885911     -0.885911   1.000000   1.000000
   52       -0.838262     -0.838262   1.000000   1.000000
   53       -0.803113     -0.803113   1.000000   1.000000
   54       -0.772632     -0.772632   1.000000   1.000000
   55       -0.642061     -0.642061   1.000000   1.000000
   56       -0.539507     -0.539507   1.000000   1.000000
   57       -0.505364     -0.505364   1.000000   1.000000
   58       -0.483064     -0.483064   1.000000   1.000000
   59       -0.461133     -0.461133   1.000000   1.000000
   60       -0.398038     -0.398038   1.000000   1.000000
   61       -0.334590     -0.334590   1.000000   1.000000
   62       -0.035978     -0.035978   1.000000   1.000000
   63        0.070694      0.070694   1.000000   1.000000
   64        0.140819      0.140819   1.000000   1.000000
   65        0.239525      0.239525   1.000000   1.000000
   66        0.504853      0.504853   1.000000   1.000000
   67        0.636383      0.636383   1.000000   1.000000
   68        0.775692      0.775692   1.000000   1.000000
   69        0.847025      0.847025   1.000000   1.000000
   70        0.910655      0.910655   1.000000   1.000000
   71        0.953913      0.953913   1.000000   1.000000
   72        0.993291      0.993291   1.000000   1.000000
   73        1.091026      1.091026   1.000000   1.000000
   74        1.112258      1.112258   1.000000   1.000000
   75        1.292000      1.292000   1.000000   1.000000
   76        1.294887      1.294887   1.000000   1.000000
   77        1.432044      1.432044   1.000000   1.000000
   78        1.549915      1.549915   1.000000   1.000000
   79        1.616052      1.616052   1.000000   1.000000
   80        1.644730      1.644730   1.000000   1.000000
   81        1.651508      1.651508   1.000000   1.000000
   82        1.817884      1.817884   1.000000   1.000000
   83        1.918149      1.918149   1.000000   1.000000
   84        2.074573      2.074573   1.000000   1.000000
   85        2.075737      2.075737   1.000000   1.000000
   86        2.238635      2.238635   1.000000   1.000000
   87        2.319859      2.319859   1.000000   1.000000
   88        2.330122      2.330122   1.000000   1.000000
   89        2.391377      2.391377   1.000000   1.000000
   90        2.472826      2.472826   1.000000   1.000000
   91        2.616334      2.616334   1.000000   1.000000
   92        2.746808      2.746808   1.000000   1.000000
   93        2.843332      2.843332   1.000000   1.000000
   94        2.881040      2.881040   1.000000   1.000000
   95        2.917474      2.917474   1.000000   1.000000
   96        3.064741      3.064741   1.000000   1.000000
   97        4.238562      4.238562   1.000000   1.000000
   98        4.261191      4.261191   1.000000   1.000000
   99        4.349358      4.349358   1.000000   1.000000
  100        4.378823      4.378823   1.000000   1.000000
  101        4.411394      4.411394   1.000000   1.000000
  102        4.578167      4.578167   1.000000   1.000000
  103        4.679918      4.679918   1.000000   1.000000
  104        4.730802      4.730802   1.000000   1.000000
  105        4.767157      4.767157   1.000000   1.000000
  106        4.870629      4.870629   1.000000   1.000000
  107        4.949052      4.949052   1.000000   1.000000
  108        4.972366      4.972366   1.000000   1.000000
  109        5.014349      5.014349   1.000000   1.000000
  110        5.023903      5.023903   1.000000   1.000000
  111        5.085406      5.085406   1.000000   1.000000
  112        5.267090      5.267090   1.000000   1.000000
  113        5.331134      5.331134   1.000000   1.000000
  114        5.343106      5.343106   1.000000   1.000000
  115        5.424424      5.424424   1.000000   1.000000
  116        5.542761      5.542761   1.000000   1.000000
  117        5.586150      5.586150   1.000000   1.000000
  118        5.618200      5.618200   1.000000   1.000000
  119        5.878396      5.878396   1.000000   1.000000
  120        5.967393      5.967393   1.000000   1.000000
  121        6.091101      6.091101   0.999983   0.999983
  122        6.223575      6.223575   0.999484   0.999484
  123        6.373814      6.373814   0.995348   0.995348
  124        6.389163      6.389163   0.995089   0.995089
  125        6.751083      6.751083   0.742427   0.742427
  126        6.909976      6.909976   0.032663   0.032663
  127        7.717767      7.717767   0.000000   0.000000
  128        7.827624      7.827624   0.000000   0.000000
  129        7.946220      7.946220   0.000000   0.000000
  130        8.250582      8.250582   0.000000   0.000000
  131        8.315836      8.315836   0.000000   0.000000
  132        8.561337      8.561337   0.000000   0.000000
  133        8.586733      8.586733   0.000000   0.000000
  134        8.759166      8.759166   0.000000   0.000000
  135        8.797856      8.797856   0.000000   0.000000
  136        8.805554      8.805554   0.000000   0.000000
  137        8.866307      8.866307   0.000000   0.000000
  138        8.918171      8.918171   0.000000   0.000000
  139        9.187227      9.187227   0.000000   0.000000
  140        9.194782      9.194782   0.000000   0.000000
  141        9.235731      9.235731   0.000000   0.000000
  142        9.275017      9.275017   0.000000   0.000000
  143        9.391461      9.391461   0.000000   0.000000
  144        9.409352      9.409352   0.000000   0.000000
  145        9.456033      9.456033   0.000000   0.000000
  146        9.483851      9.483851   0.000000   0.000000
  147        9.533907      9.533907   0.000000   0.000000
  148        9.561875      9.561875   0.000000   0.000000
  149        9.646794      9.646794   0.000000   0.000000
  150        9.703840      9.703840   0.000000   0.000000
  151       10.095325     10.095325   0.000000   0.000000
  152       10.109698     10.109698   0.000000   0.000000
  153       10.327668     10.327668   0.000000   0.000000
  154       10.438679     10.438679   0.000000   0.000000
  155       11.445457     11.445457   0.000000   0.000000
  156       11.483550     11.483550   0.000000   0.000000
  157       11.518778     11.518778   0.000000   0.000000
  158       11.836039     11.836039   0.000000   0.000000
  159       12.078927     12.078927   0.000000   0.000000
  160       12.138838     12.138838   0.000000   0.000000
 
 -0.2500000E+00  0.8333333E-01  0.1250000E+00  0.8333333E-01
    1      -29.048627    -29.048627   1.000000   1.000000
    2      -29.048373    -29.048373   1.000000   1.000000
    3      -29.041523    -29.041523   1.000000   1.000000
    4      -29.041334    -29.041334   1.000000   1.000000
    5      -14.554888    -14.554888   1.000000   1.000000
    6      -14.459433    -14.459433   1.000000   1.000000
    7      -14.230117    -14.230117   1.000000   1.000000
    8      -14.044655    -14.044655   1.000000   1.000000
    9      -14.032063    -14.032063   1.000000   1.000000
   10      -13.783112    -13.783112   1.000000   1.000000
   11      -13.712609    -13.712609   1.000000   1.000000
   12      -13.666862    -13.666862   1.000000   1.000000
   13      -13.370515    -13.370515   1.000000   1.000000
   14      -13.362412    -13.362412   1.000000   1.000000
   15      -13.269243    -13.269243   1.000000   1.000000
   16      -13.268176    -13.268176   1.000000   1.000000
   17      -13.189995    -13.189995   1.000000   1.000000
   18      -13.159827    -13.159827   1.000000   1.000000
   19      -13.022220    -13.022220   1.000000   1.000000
   20      -12.976518    -12.976518   1.000000   1.000000
   21      -12.927738    -12.927738   1.000000   1.000000
   22      -12.846925    -12.846925   1.000000   1.000000
   23      -12.730653    -12.730653   1.000000   1.000000
   24      -12.702648    -12.702648   1.000000   1.000000
   25      -10.866180    -10.866180   1.000000   1.000000
   26      -10.856761    -10.856761   1.000000   1.000000
   27      -10.750294    -10.750294   1.000000   1.000000
   28      -10.728055    -10.728055   1.000000   1.000000
   29      -10.687763    -10.687763   1.000000   1.000000
   30      -10.654726    -10.654726   1.000000   1.000000
   31      -10.615789    -10.615789   1.000000   1.000000
   32      -10.591640    -10.591640   1.000000   1.000000
   33      -10.588654    -10.588654   1.000000   1.000000
   34      -10.581146    -10.581146   1.000000   1.000000
   35      -10.578990    -10.578990   1.000000   1.000000
   36      -10.554222    -10.554222   1.000000   1.000000
   37       -2.257086     -2.257086   1.000000   1.000000
   38       -2.234582     -2.234582   1.000000   1.000000
   39       -2.110778     -2.110778   1.000000   1.000000
   40       -2.077042     -2.077042   1.000000   1.000000
   41       -1.919309     -1.919309   1.000000   1.000000
   42       -1.844270     -1.844270   1.000000   1.000000
   43       -1.822127     -1.822127   1.000000   1.000000
   44       -1.818486     -1.818486   1.000000   1.000000
   45       -1.334110     -1.334110   1.000000   1.000000
   46       -1.314293     -1.314293   1.000000   1.000000
   47       -1.202261     -1.202261   1.000000   1.000000
   48       -1.158788     -1.158788   1.000000   1.000000
   49       -1.122717     -1.122717   1.000000   1.000000
   50       -1.094071     -1.094071   1.000000   1.000000
   51       -0.914903     -0.914903   1.000000   1.000000
   52       -0.852757     -0.852757   1.000000   1.000000
   53       -0.813457     -0.813457   1.000000   1.000000
   54       -0.729115     -0.729115   1.000000   1.000000
   55       -0.614949     -0.614949   1.000000   1.000000
   56       -0.584527     -0.584527   1.000000   1.000000
   57       -0.509206     -0.509206   1.000000   1.000000
   58       -0.488442     -0.488442   1.000000   1.000000
   59       -0.406857     -0.406857   1.000000   1.000000
   60       -0.396416     -0.396416   1.000000   1.000000
   61       -0.385758     -0.385758   1.000000   1.000000
   62       -0.078782     -0.078782   1.000000   1.000000
   63        0.011149      0.011149   1.000000   1.000000
   64        0.179750      0.179750   1.000000   1.000000
   65        0.451641      0.451641   1.000000   1.000000
   66        0.489642      0.489642   1.000000   1.000000
   67        0.521409      0.521409   1.000000   1.000000
   68        0.770607      0.770607   1.000000   1.000000
   69        0.817622      0.817622   1.000000   1.000000
   70        0.859182      0.859182   1.000000   1.000000
   71        0.960002      0.960002   1.000000   1.000000
   72        1.061897      1.061897   1.000000   1.000000
   73        1.101173      1.101173   1.000000   1.000000
   74        1.159335      1.159335   1.000000   1.000000
   75        1.235616      1.235616   1.000000   1.000000
   76        1.306423      1.306423   1.000000   1.000000
   77        1.387825      1.387825   1.000000   1.000000
   78        1.488774      1.488774   1.000000   1.000000
   79        1.603747      1.603747   1.000000   1.000000
   80        1.705522      1.705522   1.000000   1.000000
   81        1.806105      1.806105   1.000000   1.000000
   82        1.817060      1.817060   1.000000   1.000000
   83        1.941380      1.941380   1.000000   1.000000
   84        1.955871      1.955871   1.000000   1.000000
   85        2.014519      2.014519   1.000000   1.000000
   86        2.221290      2.221290   1.000000   1.000000
   87        2.235990      2.235990   1.000000   1.000000
   88        2.410997      2.410997   1.000000   1.000000
   89        2.483271      2.483271   1.000000   1.000000
   90        2.490783      2.490783   1.000000   1.000000
   91        2.512501      2.512501   1.000000   1.000000
   92        2.786682      2.786682   1.000000   1.000000
   93        2.858811      2.858811   1.000000   1.000000
   94        2.886187      2.886187   1.000000   1.000000
   95        2.956897      2.956897   1.000000   1.000000
   96        3.014252      3.014252   1.000000   1.000000
   97        4.220238      4.220238   1.000000   1.000000
   98        4.279338      4.279338   1.000000   1.000000
   99        4.321868      4.321868   1.000000   1.000000
  100        4.367614      4.367614   1.000000   1.000000
  101        4.474234      4.474234   1.000000   1.000000
  102        4.565911      4.565911   1.000000   1.000000
  103        4.692564      4.692564   1.000000   1.000000
  104        4.754503      4.754503   1.000000   1.000000
  105        4.755215      4.755215   1.000000   1.000000
  106        4.854079      4.854079   1.000000   1.000000
  107        4.944308      4.944308   1.000000   1.000000
  108        4.970048      4.970048   1.000000   1.000000
  109        4.994816      4.994816   1.000000   1.000000
  110        5.002604      5.002604   1.000000   1.000000
  111        5.125424      5.125424   1.000000   1.000000
  112        5.239737      5.239737   1.000000   1.000000
  113        5.324067      5.324067   1.000000   1.000000
  114        5.342416      5.342416   1.000000   1.000000
  115        5.466584      5.466584   1.000000   1.000000
  116        5.509532      5.509532   1.000000   1.000000
  117        5.606253      5.606253   1.000000   1.000000
  118        5.612203      5.612203   1.000000   1.000000
  119        5.887413      5.887413   1.000000   1.000000
  120        5.964336      5.964336   1.000000   1.000000
  121        6.112119      6.112119   0.999969   0.999969
  122        6.141593      6.141593   0.999930   0.999930
  123        6.375580      6.375580   0.995306   0.995306
  124        6.464545      6.464545   1.001112   1.001112
  125        6.718695      6.718695   0.875827   0.875827
  126        6.911842      6.911842   0.028270   0.028270
  127        7.725929      7.725929   0.000000   0.000000
  128        7.841651      7.841651   0.000000   0.000000
  129        8.036355      8.036355   0.000000   0.000000
  130        8.134482      8.134482   0.000000   0.000000
  131        8.318190      8.318190   0.000000   0.000000
  132        8.516975      8.516975   0.000000   0.000000
  133        8.571213      8.571213   0.000000   0.000000
  134        8.751894      8.751894   0.000000   0.000000
  135        8.801518      8.801518   0.000000   0.000000
  136        8.841280      8.841280   0.000000   0.000000
  137        8.905401      8.905401   0.000000   0.000000
  138        8.925148      8.925148   0.000000   0.000000
  139        9.177271      9.177271   0.000000   0.000000
  140        9.197243      9.197243   0.000000   0.000000
  141        9.243855      9.243855   0.000000   0.000000
  142        9.274406      9.274406   0.000000   0.000000
  143        9.365077      9.365077   0.000000   0.000000
  144        9.381437      9.381437   0.000000   0.000000
  145        9.472590      9.472590   0.000000   0.000000
  146        9.506873      9.506873   0.000000   0.000000
  147        9.546386      9.546386   0.000000   0.000000
  148        9.569539      9.569539   0.000000   0.000000
  149        9.658418      9.658418   0.000000   0.000000
  150        9.670172      9.670172   0.000000   0.000000
  151        9.990511      9.990511   0.000000   0.000000
  152       10.196996     10.196996   0.000000   0.000000
  153       10.353339     10.353339   0.000000   0.000000
  154       10.452350     10.452350   0.000000   0.000000
  155       11.268282     11.268282   0.000000   0.000000
  156       11.475277     11.475277   0.000000   0.000000
  157       11.758903     11.758902   0.000000   0.000000
  158       11.971792     11.971792   0.000000   0.000000
  159       12.024689     12.024689   0.000000   0.000000
  160       12.125240     12.125240   0.000000   0.000000
 
  0.2500000E+00  0.2500000E+00  0.1250000E+00  0.8333333E-01
    1      -28.974536    -28.974536   1.000000   1.000000
    2      -28.974355    -28.974355   1.000000   1.000000
    3      -28.969247    -28.969247   1.000000   1.000000
    4      -28.969127    -28.969127   1.000000   1.000000
    5      -14.207243    -14.207243   1.000000   1.000000
    6      -14.101823    -14.101823   1.000000   1.000000
    7      -13.937598    -13.937598   1.000000   1.000000
    8      -13.750507    -13.750507   1.000000   1.000000
    9      -13.663377    -13.663377   1.000000   1.000000
   10      -13.602268    -13.602268   1.000000   1.000000
   11      -13.526754    -13.526754   1.000000   1.000000
   12      -13.451335    -13.451335   1.000000   1.000000
   13      -13.318625    -13.318625   1.000000   1.000000
   14      -13.306955    -13.306955   1.000000   1.000000
   15      -13.269398    -13.269398   1.000000   1.000000
   16      -13.264338    -13.264338   1.000000   1.000000
   17      -13.170909    -13.170909   1.000000   1.000000
   18      -13.158320    -13.158320   1.000000   1.000000
   19      -13.118938    -13.118938   1.000000   1.000000
   20      -13.054446    -13.054446   1.000000   1.000000
   21      -13.044469    -13.044469   1.000000   1.000000
   22      -12.951221    -12.951221   1.000000   1.000000
   23      -12.934264    -12.934264   1.000000   1.000000
   24      -12.883190    -12.883190   1.000000   1.000000
   25      -11.110408    -11.110408   1.000000   1.000000
   26      -11.089996    -11.089996   1.000000   1.000000
   27      -11.067532    -11.067532   1.000000   1.000000
   28      -11.055368    -11.055368   1.000000   1.000000
   29      -10.850530    -10.850530   1.000000   1.000000
   30      -10.847084    -10.847084   1.000000   1.000000
   31      -10.787465    -10.787465   1.000000   1.000000
   32      -10.783775    -10.783775   1.000000   1.000000
   33      -10.708658    -10.708658   1.000000   1.000000
   34      -10.692725    -10.692725   1.000000   1.000000
   35      -10.689305    -10.689305   1.000000   1.000000
   36      -10.658231    -10.658231   1.000000   1.000000
   37       -1.823691     -1.823691   1.000000   1.000000
   38       -1.817095     -1.817095   1.000000   1.000000
   39       -1.675325     -1.675325   1.000000   1.000000
   40       -1.669296     -1.669296   1.000000   1.000000
   41       -1.540155     -1.540155   1.000000   1.000000
   42       -1.453094     -1.453094   1.000000   1.000000
   43       -1.379551     -1.379551   1.000000   1.000000
   44       -1.361041     -1.361041   1.000000   1.000000
   45       -1.227507     -1.227507   1.000000   1.000000
   46       -1.170888     -1.170888   1.000000   1.000000
   47       -1.122464     -1.122464   1.000000   1.000000
   48       -1.096727     -1.096727   1.000000   1.000000
   49       -1.001564     -1.001564   1.000000   1.000000
   50       -0.937127     -0.937127   1.000000   1.000000
   51       -0.883490     -0.883490   1.000000   1.000000
   52       -0.854508     -0.854508   1.000000   1.000000
   53       -0.844077     -0.844077   1.000000   1.000000
   54       -0.691723     -0.691723   1.000000   1.000000
   55       -0.618934     -0.618934   1.000000   1.000000
   56       -0.596707     -0.596707   1.000000   1.000000
   57       -0.460727     -0.460727   1.000000   1.000000
   58       -0.447503     -0.447503   1.000000   1.000000
   59       -0.394144     -0.394144   1.000000   1.000000
   60       -0.288739     -0.288739   1.000000   1.000000
   61       -0.205604     -0.205604   1.000000   1.000000
   62       -0.143676     -0.143676   1.000000   1.000000
   63       -0.046732     -0.046732   1.000000   1.000000
   64        0.036886      0.036886   1.000000   1.000000
   65        0.049922      0.049922   1.000000   1.000000
   66        0.121089      0.121089   1.000000   1.000000
   67        0.330273      0.330273   1.000000   1.000000
   68        0.358881      0.358881   1.000000   1.000000
   69        0.382266      0.382266   1.000000   1.000000
   70        0.552747      0.552747   1.000000   1.000000
   71        0.607702      0.607702   1.000000   1.000000
   72        0.712178      0.712178   1.000000   1.000000
   73        0.717183      0.717183   1.000000   1.000000
   74        0.774031      0.774031   1.000000   1.000000
   75        0.960576      0.960576   1.000000   1.000000
   76        1.148201      1.148201   1.000000   1.000000
   77        1.232942      1.232942   1.000000   1.000000
   78        1.251158      1.251158   1.000000   1.000000
   79        1.357960      1.357960   1.000000   1.000000
   80        1.575028      1.575028   1.000000   1.000000
   81        1.662388      1.662388   1.000000   1.000000
   82        1.696409      1.696409   1.000000   1.000000
   83        1.774479      1.774479   1.000000   1.000000
   84        1.817980      1.817980   1.000000   1.000000
   85        1.822965      1.822965   1.000000   1.000000
   86        1.906059      1.906059   1.000000   1.000000
   87        2.067310      2.067310   1.000000   1.000000
   88        2.167180      2.167180   1.000000   1.000000
   89        2.191456      2.191456   1.000000   1.000000
   90        2.263991      2.263991   1.000000   1.000000
   91        2.347684      2.347684   1.000000   1.000000
   92        2.390525      2.390525   1.000000   1.000000
   93        2.404296      2.404296   1.000000   1.000000
   94        2.492143      2.492143   1.000000   1.000000
   95        2.591746      2.591746   1.000000   1.000000
   96        2.664947      2.664947   1.000000   1.000000
   97        4.337853      4.337853   1.000000   1.000000
   98        4.396563      4.396563   1.000000   1.000000
   99        4.607947      4.607947   1.000000   1.000000
  100        4.632746      4.632746   1.000000   1.000000
  101        4.779419      4.779419   1.000000   1.000000
  102        4.832676      4.832676   1.000000   1.000000
  103        4.911926      4.911926   1.000000   1.000000
  104        4.996220      4.996220   1.000000   1.000000
  105        5.033376      5.033376   1.000000   1.000000
  106        5.093136      5.093136   1.000000   1.000000
  107        5.206665      5.206665   1.000000   1.000000
  108        5.258973      5.258973   1.000000   1.000000
  109        5.377291      5.377291   1.000000   1.000000
  110        5.401360      5.401360   1.000000   1.000000
  111        5.454985      5.454985   1.000000   1.000000
  112        5.482091      5.482091   1.000000   1.000000
  113        5.568875      5.568875   1.000000   1.000000
  114        5.590595      5.590595   1.000000   1.000000
  115        5.646940      5.646940   1.000000   1.000000
  116        5.727077      5.727077   1.000000   1.000000
  117        5.736878      5.736878   1.000000   1.000000
  118        5.748206      5.748206   1.000000   1.000000
  119        6.047907      6.047907   0.999996   0.999996
  120        6.092081      6.092081   0.999983   0.999983
  121        6.210713      6.210713   0.999610   0.999610
  122        6.231250      6.231250   0.999393   0.999393
  123        6.474799      6.474799   1.003473   1.003473
  124        6.544589      6.544589   1.030937   1.030937
  125        6.612894      6.612894   1.051346   1.051346
  126        6.694563      6.694563   0.950833   0.950833
  127        7.781048      7.781048   0.000000   0.000000
  128        7.802429      7.802429   0.000000   0.000000
  129        8.037573      8.037573   0.000000   0.000000
  130        8.087563      8.087563   0.000000   0.000000
  131        8.333303      8.333303   0.000000   0.000000
  132        8.352927      8.352927   0.000000   0.000000
  133        8.498512      8.498512   0.000000   0.000000
  134        8.508832      8.508832   0.000000   0.000000
  135        8.548144      8.548144   0.000000   0.000000
  136        8.584271      8.584271   0.000000   0.000000
  137        8.623946      8.623946   0.000000   0.000000
  138        8.688659      8.688659   0.000000   0.000000
  139        8.872924      8.872924   0.000000   0.000000
  140        8.965880      8.965880   0.000000   0.000000
  141        9.047301      9.047301   0.000000   0.000000
  142        9.049941      9.049941   0.000000   0.000000
  143        9.231060      9.231060   0.000000   0.000000
  144        9.314441      9.314441   0.000000   0.000000
  145        9.317855      9.317855   0.000000   0.000000
  146        9.480931      9.480931   0.000000   0.000000
  147        9.729370      9.729370   0.000000   0.000000
  148        9.760440      9.760440   0.000000   0.000000
  149       10.430675     10.430675   0.000000   0.000000
  150       10.591091     10.591091   0.000000   0.000000
  151       11.062032     11.062032   0.000000   0.000000
  152       11.104673     11.104673   0.000000   0.000000
  153       11.169415     11.169415   0.000000   0.000000
  154       11.399798     11.399798   0.000000   0.000000
  155       11.791979     11.791979   0.000000   0.000000
  156       11.883425     11.883425   0.000000   0.000000
  157       11.955791     11.955791   0.000000   0.000000
  158       12.046593     12.046593   0.000000   0.000000
  159       12.224636     12.224636   0.000000   0.000000
  160       12.246078     12.246078   0.000000   0.000000
 
 -0.2500000E+00  0.2500000E+00  0.1250000E+00  0.8333333E-01
    1      -28.974538    -28.974538   1.000000   1.000000
    2      -28.974355    -28.974355   1.000000   1.000000
    3      -28.969247    -28.969247   1.000000   1.000000
    4      -28.969127    -28.969127   1.000000   1.000000
    5      -14.204324    -14.204324   1.000000   1.000000
    6      -14.113573    -14.113573   1.000000   1.000000
    7      -13.896776    -13.896776   1.000000   1.000000
    8      -13.790552    -13.790552   1.000000   1.000000
    9      -13.717033    -13.717033   1.000000   1.000000
   10      -13.513548    -13.513548   1.000000   1.000000
   11      -13.510429    -13.510429   1.000000   1.000000
   12      -13.457634    -13.457634   1.000000   1.000000
   13      -13.361102    -13.361102   1.000000   1.000000
   14      -13.308320    -13.308320   1.000000   1.000000
   15      -13.286886    -13.286886   1.000000   1.000000
   16      -13.248845    -13.248845   1.000000   1.000000
   17      -13.190661    -13.190661   1.000000   1.000000
   18      -13.140440    -13.140440   1.000000   1.000000
   19      -13.104228    -13.104228   1.000000   1.000000
   20      -13.074600    -13.074600   1.000000   1.000000
   21      -13.022575    -13.022575   1.000000   1.000000
   22      -12.951402    -12.951402   1.000000   1.000000
   23      -12.943230    -12.943230   1.000000   1.000000
   24      -12.880195    -12.880195   1.000000   1.000000
   25      -11.110452    -11.110452   1.000000   1.000000
   26      -11.089931    -11.089931   1.000000   1.000000
   27      -11.067609    -11.067609   1.000000   1.000000
   28      -11.055279    -11.055279   1.000000   1.000000
   29      -10.850761    -10.850761   1.000000   1.000000