 running on   96 total cores
 distrk:  each k-point on   96 cores,    1 groups
 distr:  one band on   12 cores,    8 groups
 using from now: INCAR     
 vasp.5.4.1 24Jun15 (build Nov 16 2016 17:59:42) complex                        
  
 POSCAR found type information on POSCAR  Sr Ir O 
 POSCAR found :  3 types and      34 ions
 scaLAPACK will be used

 ----------------------------------------------------------------------------- 
|                                                                             |
|  ADVICE TO THIS USER RUNNING 'VASP/VAMP'   (HEAR YOUR MASTER'S VOICE ...):  |
|                                                                             |
|      You have a (more or less) 'large supercell' and for larger cells       |
|      it might be more efficient to use real space projection opertators     |
|      So try LREAL= Auto  in the INCAR   file.                               |
|      Mind: At the moment your POTCAR file does not contain real space       |
|       projectors, and has to be modified,  BUT if you                       |
|      want to do an extremely  accurate calculation you might also keep the  |
|      reciprocal projection scheme          (i.e. LREAL=.FALSE.)             |
|                                                                             |
 ----------------------------------------------------------------------------- 

 LDA part: xc-table for Pade appr. of Perdew
 POSCAR, INCAR and KPOINTS ok, starting setup
 FFT: planning ...
 WAVECAR not read
 entering main loop
       N       E                     dE             d eps       ncg     rms          rms(c)
DAV:   1     0.240584801015E+04    0.24058E+04   -0.10600E+05  7680   0.128E+03
DAV:   2     0.590729644271E+02   -0.23468E+04   -0.22176E+04  7848   0.411E+02
DAV:   3    -0.225126847730E+03   -0.28420E+03   -0.27027E+03 10176   0.149E+02
DAV:   4    -0.240888028626E+03   -0.15761E+02   -0.15148E+02 10736   0.323E+01
DAV:   5    -0.241644748335E+03   -0.75672E+00   -0.75237E+00 12344   0.605E+00    0.164E+02
RMM:   6    -0.231246389424E+03    0.10398E+02   -0.29376E+02  7887   0.405E+01    0.102E+02
RMM:   7    -0.203749964652E+03    0.27496E+02   -0.28355E+01  7682   0.145E+01    0.513E+01
RMM:   8    -0.206888939976E+03   -0.31390E+01   -0.17990E+01  7872   0.939E+00    0.448E+01
RMM:   9    -0.204590892315E+03    0.22980E+01   -0.86542E+00  7796   0.676E+00    0.149E+01
RMM:  10    -0.202528360319E+03    0.20625E+01   -0.19132E+00  7798   0.350E+00    0.109E+01
RMM:  11    -0.201780573827E+03    0.74779E+00   -0.63544E-01  7945   0.186E+00    0.693E+00
RMM:  12    -0.201359802092E+03    0.42077E+00   -0.54217E-01  8155   0.143E+00    0.259E+00
RMM:  13    -0.201369450598E+03   -0.96485E-02   -0.10632E-01  9002   0.651E-01    0.155E+00
RMM:  14    -0.201404244963E+03   -0.34794E-01   -0.85675E-02  8307   0.615E-01    0.148E+00
RMM:  15    -0.201402614300E+03    0.16307E-02   -0.29244E-02  7873   0.452E-01    0.113E+00
RMM:  16    -0.201399043474E+03    0.35708E-02   -0.10991E-02  7972   0.243E-01    0.838E-01
RMM:  17    -0.201399232177E+03   -0.18870E-03   -0.20372E-03  9419   0.883E-02    0.559E-01
RMM:  18    -0.201401246910E+03   -0.20147E-02   -0.16249E-03  8279   0.847E-02    0.373E-01
RMM:  19    -0.201401287088E+03   -0.40178E-04   -0.10344E-03  8140   0.687E-02    0.148E-01
RMM:  20    -0.201402288377E+03   -0.10013E-02   -0.78324E-04  8040   0.634E-02    0.283E-01
RMM:  21    -0.201402385588E+03   -0.97211E-04   -0.26009E-04  8578   0.331E-02    0.234E-01
RMM:  22    -0.201402434680E+03   -0.49093E-04   -0.58463E-04  7778   0.465E-02    0.127E-01
RMM:  23    -0.201402453484E+03   -0.18803E-04   -0.21449E-04  8123   0.298E-02    0.525E-02
RMM:  24    -0.201402546300E+03   -0.92816E-04   -0.78349E-05  8265   0.170E-02    0.104E-01
RMM:  25    -0.201402615311E+03   -0.69011E-04   -0.20110E-04  7741   0.264E-02    0.704E-02
RMM:  26    -0.201402681820E+03   -0.66509E-04   -0.21521E-04  7736   0.271E-02    0.659E-02
RMM:  27    -0.201402711677E+03   -0.29857E-04   -0.15102E-04  7787   0.224E-02    0.474E-02
RMM:  28    -0.201402747295E+03   -0.35619E-04   -0.23100E-04  7692   0.279E-02    0.414E-02
RMM:  29    -0.201402760066E+03   -0.12771E-04   -0.13922E-04  7765   0.212E-02    0.161E-02
RMM:  30    -0.201402770144E+03   -0.10078E-04   -0.89653E-05  7836   0.169E-02    0.127E-02
RMM:  31    -0.201402776147E+03   -0.60028E-05   -0.97109E-05  7706   0.179E-02    0.452E-03
RMM:  32    -0.201402778435E+03   -0.22878E-05   -0.29941E-05  8415   0.933E-03    0.405E-03
RMM:  33    -0.201402779209E+03   -0.77447E-06   -0.88774E-06  8801   0.458E-03    0.449E-03
RMM:  34    -0.201402779397E+03   -0.18736E-06   -0.19056E-06  7281   0.205E-03    0.475E-03
RMM:  35    -0.201402779491E+03   -0.94748E-07   -0.59247E-07  6069   0.129E-03
   1 F= -.20140278E+03 E0= -.20140217E+03  d E =-.201403E+03  mag=     0.0025
 curvature:   0.00 expect dE= 0.000E+00 dE for cont linesearch  0.000E+00
 trial: gam= 0.00000 g(F)=  0.248E+02 g(S)=  0.855E+02 ort = 0.000E+00 (trialstep = 0.100E+01)
 search vector abs. value=  0.110E+03
 bond charge predicted
       N       E                     dE             d eps       ncg     rms          rms(c)
DAV:   1    -0.366124474896E+03   -0.16472E+03   -0.13656E+04  8008   0.354E+02    0.285E+02
RMM:   2    -0.324061138935E+03    0.42063E+02   -0.14397E+03  8134   0.959E+01    0.170E+02
RMM:   3    -0.279972773094E+03    0.44088E+02   -0.24578E+02  8309   0.354E+01    0.125E+02
RMM:   4    -0.215418451450E+03    0.64554E+02   -0.16194E+02  8322   0.293E+01    0.131E+02
RMM:   5    -0.223436972881E+03   -0.80185E+01   -0.34550E+01 10027   0.114E+01    0.106E+02
RMM:   6    -0.185200756456E+03    0.38236E+02   -0.28372E+01  8370   0.125E+01    0.104E+02
RMM:   7    -0.175853140459E+03    0.93476E+01   -0.14814E+01  9450   0.662E+00    0.878E+01
RMM:   8    -0.190775347970E+03   -0.14922E+02   -0.11926E+01  8422   0.779E+00    0.729E+01
RMM:   9    -0.175205354945E+03    0.15570E+02   -0.31109E+01  9451   0.947E+00    0.412E+01
RMM:  10    -0.168785424627E+03    0.64199E+01   -0.36074E+00  8171   0.491E+00    0.333E+01
RMM:  11    -0.170637465434E+03   -0.18520E+01   -0.24921E+00 10114   0.269E+00    0.273E+01
RMM:  12    -0.169551832221E+03    0.10856E+01   -0.63580E-01  9336   0.165E+00    0.220E+01
RMM:  13    -0.168560473051E+03    0.99136E+00   -0.56887E-01  9958   0.129E+00    0.164E+01
RMM:  14    -0.167145459178E+03    0.14150E+01   -0.98130E-01  8998   0.166E+00    0.973E+00
RMM:  15    -0.166471281263E+03    0.67418E+00   -0.63606E-01  9763   0.132E+00    0.682E+00
RMM:  16    -0.166431848860E+03    0.39432E-01   -0.80808E-02 11356   0.379E-01    0.662E+00
RMM:  17    -0.166123907187E+03    0.30794E+00   -0.10488E-01  8151   0.616E-01    0.495E+00
RMM:  18    -0.166019439996E+03    0.10447E+00   -0.11100E-01  8665   0.617E-01    0.375E+00
RMM:  19    -0.166011063094E+03    0.83769E-02   -0.16509E-02 10484   0.238E-01    0.362E+00
RMM:  20    -0.165982691329E+03    0.28372E-01   -0.60065E-03 10477   0.120E-01    0.345E+00
RMM:  21    -0.165918384787E+03    0.64307E-01   -0.11989E-02  8454   0.185E-01    0.290E+00
RMM:  22    -0.165853655819E+03    0.64729E-01   -0.35079E-02  8236   0.321E-01    0.211E+00
RMM:  23    -0.165832554451E+03    0.21101E-01   -0.26025E-02  9297   0.261E-01    0.175E+00
RMM:  24    -0.165824429147E+03    0.81253E-02   -0.77273E-03  9399   0.147E-01    0.151E+00
RMM:  25    -0.165806653373E+03    0.17776E-01   -0.75942E-03  8280   0.152E-01    0.117E+00
RMM:  26    -0.165796523827E+03    0.10130E-01   -0.52108E-03  8731   0.129E-01    0.107E+00
RMM:  27    -0.165794690682E+03    0.18331E-02   -0.10526E-03 10705   0.496E-02    0.942E-01
RMM:  28    -0.165791222640E+03    0.34680E-02   -0.67370E-04  8318   0.464E-02    0.700E-01
RMM:  29    -0.165788767137E+03    0.24555E-02   -0.13472E-03  8282   0.729E-02    0.386E-01
RMM:  30    -0.165788347926E+03    0.41921E-03   -0.96614E-04  9051   0.563E-02    0.143E-01
RMM:  31    -0.165788362890E+03   -0.14964E-04   -0.13129E-04  9307   0.247E-02    0.127E-01
RMM:  32    -0.165788339906E+03    0.22983E-04   -0.10662E-04  9357   0.156E-02    0.121E-01
RMM:  33    -0.165788339332E+03    0.57444E-06   -0.34260E-05  9888   0.103E-02    0.703E-02
RMM:  34    -0.165788336020E+03    0.33120E-05   -0.20074E-05  8989   0.829E-03    0.359E-02
RMM:  35    -0.165788335592E+03    0.42822E-06   -0.59710E-06  8215   0.547E-03    0.365E-02
RMM:  36    -0.165788337278E+03   -0.16865E-05   -0.19370E-06  8420   0.247E-03    0.351E-02
RMM:  37    -0.165788332221E+03    0.50573E-05   -0.28182E-06  7300   0.417E-03    0.347E-02
 num prob  num prob RMM:  38    -0.165788335143E+03   -0.29216E-05   -0.64777E-07  6186   0.224E-03    0.336E-02
RMM:  39    -0.165788344116E+03   -0.89733E-05   -0.27123E-05  7593   0.119E-02    0.212E-02
RMM:  40    -0.165788352436E+03   -0.83200E-05   -0.58572E-06  7852   0.529E-03    0.198E-02
RMM:  41    -0.165788365937E+03   -0.13501E-04   -0.33831E-05  7664   0.121E-02    0.168E-02
RMM:  42    -0.165788380609E+03   -0.14671E-04   -0.36299E-05  7700   0.114E-02    0.167E-02
RMM:  43    -0.165788392933E+03   -0.12325E-04   -0.21907E-05  8141   0.813E-03    0.184E-02
RMM:  44    -0.165788359263E+03    0.33670E-04   -0.57164E-05  7680   0.186E-02    0.229E-02
RMM:  45    -0.165788391342E+03   -0.32078E-04   -0.99016E-05  7680   0.240E-02    0.174E-02
RMM:  46    -0.165788405386E+03   -0.14044E-04   -0.14431E-05  8048   0.709E-03    0.163E-02
RMM:  47    -0.165788417634E+03   -0.12248E-04   -0.24373E-04  7680   0.331E-02    0.140E-02
RMM:  48    -0.165788454819E+03   -0.37186E-04   -0.52457E-05  8946   0.127E-02    0.127E-02
RMM:  49    -0.165788465089E+03   -0.10270E-04   -0.23881E-05  8519   0.793E-03    0.126E-02
RMM:  50    -0.165788469859E+03   -0.47695E-05   -0.80697E-06  9241   0.430E-03    0.134E-02
RMM:  51    -0.165788466467E+03    0.33918E-05   -0.22482E-06  7084   0.390E-03    0.150E-02
RMM:  52    -0.165788452628E+03    0.13839E-04   -0.16861E-05  7555   0.918E-03    0.183E-02
RMM:  53    -0.165788454356E+03   -0.17281E-05   -0.19585E-06  7048   0.292E-03    0.168E-02
RMM:  54    -0.165788440273E+03    0.14083E-04   -0.15926E-05  7569   0.846E-03    0.186E-02
RMM:  55    -0.165788409863E+03    0.30410E-04   -0.57896E-05  7674   0.159E-02    0.210E-02
RMM:  56    -0.165788355696E+03    0.54167E-04   -0.14723E-04  7689   0.247E-02    0.251E-02
RMM:  57    -0.165788397202E+03   -0.41506E-04   -0.19948E-05  7641   0.131E-02    0.169E-02
RMM:  58    -0.165788415629E+03   -0.18427E-04   -0.14524E-04  7680   0.275E-02    0.112E-02
RMM:  59    -0.165788444858E+03   -0.29230E-04   -0.10384E-04  7696   0.201E-02    0.959E-03
RMM:  60    -0.165788467310E+03   -0.22452E-04   -0.47944E-05  8073   0.123E-02    0.911E-03
RMM:  61    -0.165788478362E+03   -0.11052E-04   -0.42341E-05  7734   0.118E-02    0.789E-03
RMM:  62    -0.165788486458E+03   -0.80964E-05   -0.16990E-05  9093   0.662E-03    0.873E-03
RMM:  63    -0.165788488354E+03   -0.18955E-05   -0.35736E-06  8718   0.288E-03    0.966E-03
RMM:  64    -0.165788488467E+03   -0.11356E-06   -0.64183E-07  6050   0.125E-03    0.100E-02
RMM:  65    -0.165788489223E+03   -0.75623E-06   -0.45293E-07  5903   0.121E-03    0.988E-03
RMM:  66    -0.165788489111E+03    0.11187E-06   -0.10187E-07  4545   0.751E-04    0.102E-02
RMM:  67    -0.165788486176E+03    0.29354E-05   -0.18244E-06  6697   0.314E-03    0.114E-02
RMM:  68    -0.165788474135E+03    0.12041E-04   -0.18851E-05  7550   0.941E-03    0.145E-02
RMM:  69    -0.165788456075E+03    0.18060E-04   -0.38749E-05  7618   0.127E-02    0.175E-02
RMM:  70    -0.165788461000E+03   -0.49258E-05   -0.78805E-06  8443   0.502E-03    0.144E-02
RMM:  71    -0.165788463506E+03   -0.25052E-05   -0.10123E-06  6613   0.254E-03    0.134E-02
RMM:  72    -0.165788457125E+03    0.63807E-05   -0.48135E-06  7120   0.454E-03    0.149E-02
RMM:  73    -0.165788466953E+03   -0.98282E-05   -0.12858E-05  7537   0.879E-03    0.113E-02
RMM:  74    -0.165788466662E+03    0.29108E-06   -0.57590E-07  5931   0.259E-03    0.129E-02
RMM:  75    -0.165788466232E+03    0.42973E-06   -0.34727E-08  4081   0.634E-04    0.132E-02
RMM:  76    -0.165788466073E+03    0.15890E-06   -0.77592E-09  3185   0.280E-04    0.133E-02
RMM:  77    -0.165788471398E+03   -0.53252E-05   -0.50355E-06  7134   0.512E-03    0.115E-02
RMM:  78    -0.165788474541E+03   -0.31421E-05   -0.23961E-06  6790   0.298E-03    0.115E-02
RMM:  79    -0.165788475806E+03   -0.12652E-05   -0.77423E-07  6218   0.159E-03    0.121E-02
RMM:  80    -0.165788477715E+03   -0.19095E-05   -0.11742E-06  6363   0.208E-03
   2 F= -.16578848E+03 E0= -.16579002E+03  d E =0.356143E+02  mag=    -0.3223
 trial-energy change:   35.614302  1 .order   13.478210 -110.345610  137.302029
 step:   0.3275(harm=  0.4456)  dis= 0.08091  next Energy=  -218.692509 (dE=-0.173E+02)
 bond charge predicted
       N       E                     dE             d eps       ncg     rms          rms(c)
DAV:   1    -0.364648728827E+03   -0.19886E+03   -0.73455E+03  7704   0.278E+02    0.168E+02
RMM:   2    -0.253696715477E+03    0.11095E+03   -0.55180E+02  7680   0.642E+01    0.611E+01
RMM:   3    -0.228223662683E+03    0.25473E+02   -0.67039E+01  7921   0.225E+01    0.452E+01
RMM:   4    -0.217561713358E+03    0.10662E+02   -0.16861E+01  7812   0.107E+01    0.289E+01
RMM:   5    -0.217786605939E+03   -0.22489E+00   -0.13692E+01  9079   0.612E+00    0.344E+01
RMM:   6    -0.214853958061E+03    0.29326E+01   -0.29206E+00  8383   0.462E+00    0.102E+01
RMM:   7    -0.215033034405E+03   -0.17908E+00   -0.17841E+00  8790   0.309E+00    0.105E+01
RMM:   8    -0.214922400140E+03    0.11063E+00   -0.60024E-01  9986   0.159E+00    0.453E+00
RMM:   9    -0.214984631475E+03   -0.62231E-01   -0.32777E-01 10427   0.114E+00    0.311E+00
RMM:  10    -0.214969221898E+03    0.15410E-01   -0.12398E-01 10991   0.699E-01    0.104E+00
RMM:  11    -0.214969608044E+03   -0.38615E-03   -0.55638E-02 12336   0.364E-01    0.515E-01
RMM:  12    -0.214970697398E+03   -0.10894E-02   -0.19327E-02 11818   0.269E-01    0.292E-01
RMM:  13    -0.214970719387E+03   -0.21989E-04   -0.68675E-03 12237   0.123E-01    0.195E-01
WARNING in EDDRMM: call to ZHEGV failed, returncode =   8  4 11
RMM:  14    -0.214971052321E+03   -0.33293E-03   -0.24766E-03 12692   0.640E-02    0.112E-01
RMM:  15    -0.214971392675E+03   -0.34035E-03   -0.96146E-04 12532   0.441E-02    0.115E-01
WARNING in EDDRMM: call to ZHEGV failed, returncode =   8  4 12
RMM:  16    -0.214971505286E+03   -0.11261E-03   -0.51418E-04 13136   0.249E-02    0.118E-01
RMM:  17    -0.214971010676E+03    0.49461E-03   -0.10015E-03  9073   0.518E-02    0.163E-01
RMM:  18    -0.214971200432E+03   -0.18976E-03   -0.17629E-04 10261   0.229E-02    0.144E-01
RMM:  19    -0.214970385290E+03    0.81514E-03   -0.28082E-03  7682   0.908E-02    0.133E-01
RMM:  20    -0.214970355925E+03    0.29366E-04   -0.19790E-04  9304   0.230E-02    0.889E-02
RMM:  21    -0.214970337955E+03    0.17970E-04   -0.36365E-04  7751   0.318E-02    0.706E-02
RMM:  22    -0.214970330829E+03    0.71257E-05   -0.57373E-05  9014   0.143E-02    0.375E-02
RMM:  23    -0.214970344103E+03   -0.13274E-04   -0.31361E-05  8019   0.108E-02    0.254E-02
RMM:  24    -0.214970348452E+03   -0.43485E-05   -0.59816E-06  9264   0.417E-03    0.248E-02
RMM:  25    -0.214970335451E+03    0.13000E-04   -0.65199E-05  7686   0.142E-02    0.188E-02
RMM:  26    -0.214970335498E+03   -0.46868E-07   -0.31304E-06  7792   0.364E-03    0.106E-02
RMM:  27    -0.214970335642E+03   -0.14351E-06   -0.95418E-06  7625   0.514E-03    0.127E-02
RMM:  28    -0.214970334842E+03    0.79986E-06   -0.13246E-06  6693   0.222E-03    0.660E-03
RMM:  29    -0.214970334859E+03   -0.17237E-07   -0.34471E-07  5331   0.109E-03
   3 F= -.21497033E+03 E0= -.21497153E+03  d E =-.135676E+02  mag=     0.0005
 curvature:  -0.21 expect dE=-0.252E+01 dE for cont linesearch -0.655E+00
 ZBRENT: interpolating
 opt :   0.2806  next Energy=  -215.402450 (dE=-0.140E+02)
 bond charge predicted
       N       E                     dE             d eps       ncg     rms          rms(c)
DAV:   1    -0.216215944096E+03   -0.12456E+01   -0.39192E+01  8352   0.206E+01    0.802E+00
RMM:   2    -0.215724296790E+03    0.49165E+00   -0.19796E+00  7875   0.406E+00    0.757E+00
RMM:   3    -0.215577671196E+03    0.14663E+00   -0.18885E-01  8196   0.119E+00    0.340E+00
RMM:   4    -0.215555611349E+03    0.22060E-01   -0.29849E-01  7729   0.153E+00    0.301E+00
RMM:   5    -0.215505338906E+03    0.50272E-01   -0.78863E-02  7911   0.761E-01    0.135E+00
RMM:   6    -0.215496319046E+03    0.90199E-02   -0.18643E-02  8460   0.323E-01    0.406E-01
RMM:   7    -0.215496382928E+03   -0.63881E-04   -0.60132E-03  8979   0.182E-01    0.294E-01
RMM:   8    -0.215496341402E+03    0.41526E-04   -0.14842E-03 11241   0.779E-02    0.189E-01
RMM:   9    -0.215496403000E+03   -0.61598E-04   -0.89050E-04 11145   0.577E-02    0.571E-02
RMM:  10    -0.215496395448E+03    0.75526E-05   -0.19450E-04 11639   0.255E-02    0.395E-02
RMM:  11    -0.215496388010E+03    0.74375E-05   -0.56727E-05 11386   0.130E-02    0.221E-02
WARNING in EDDRMM: call to ZHEGV failed, returncode =   8  4 14
WARNING in EDDRMM: call to ZHEGV failed, returncode =   6  3 14
RMM:  12    -0.215496395436E+03   -0.74257E-05   -0.19487E-05 11541   0.795E-03    0.808E-03
WARNING in EDDRMM: call to ZHEGV failed, returncode =   6  3 15
RMM:  13    -0.215496396087E+03   -0.65115E-06   -0.86288E-06 11906   0.403E-03    0.267E-03
 num prob  num prob  num prob  num prob  num prob  num prob  num prob  num prob  num prob  num prob  num prob  num prob  num prob  num prob  num prob  num prob  num prob  num prob  num prob  num prob  num prob  num prob  num prob  num prob  num prob  num prob  num prob  num prob  num prob  num prob  num prob  num prob  num prob  num prob  num prob  num prob  num prob  num prob  num prob  num prob  num prob  num prob  num prob  num prob  num prob  num prob  num prob  num prob  num prob  num prob  num prob  num prob  num prob  num prob  num prob  num prob  num prob  num prob  num prob  num prob  num prob  num prob  num prob  num prob  num prob  num prob  num prob  num prob  num prob  num prob  num prob  num prob  num prob  num prob  num prob  num prob  num prob  num prob  num prob  num prob  num prob  num prob  num prob  num prob  num prob  num prob  num prob  num prob  num prob  num prob  num prob  num prob  num prob  num prob  num prob  num prob  num prob  num prob  num prob  num prob  num prob  num prob  num prob  num prob  num prob  num prob  num prob  num prob  num prob  num prob  num prob  num prob  num prob  num prob  num prob  num prob  num prob  num prob  num prob  num prob RMM:  14    -0.215496396261E+03   -0.17441E-06   -0.99057E-07  6346   0.193E-03    0.251E-03
 num prob  num prob  num prob  num prob  num prob  num prob  num prob  num prob  num prob  num prob  num prob  num prob  num prob  num prob  num prob  num prob  num prob  num prob  num prob  num prob  num prob RMM:  15    -0.215496396369E+03   -0.10737E-06   -0.14578E-06  8372   0.185E-03    0.110E-03
 num prob  num prob  num prob  num prob  num prob  num prob  num prob  num prob  num prob  num prob  num prob  num prob  num prob  num prob  num prob  num prob  num prob  num prob  num prob  num prob  num prob  num prob  num prob  num prob  num prob  num prob  num prob  num prob  num prob  num prob  num prob  num prob  num prob  num prob  num prob  num prob  num prob  num prob  num prob  num prob  num prob  num prob  num prob  num prob  num prob  num prob  num prob  num prob  num prob  num prob  num prob  num prob  num prob  num prob  num prob  num prob  num prob  num prob  num prob  num prob  num prob  num prob  num prob  num prob  num prob  num prob  num prob  num prob  num prob  num prob  num prob  num prob  num prob  num prob  num prob  num prob  num prob  num prob  num prob  num prob  num prob  num prob  num prob  num prob  num prob  num prob  num prob  num prob  num prob  num prob  num prob  num prob  num prob  num prob  num prob RMM:  16    -0.215496396364E+03    0.45657E-08   -0.24775E-07  6110   0.139E-03
   4 F= -.21549640E+03 E0= -.21550145E+03  d E =-.140936E+02  mag=     0.0000
 curvature:  -0.14 expect dE=-0.102E+01 dE for cont linesearch -0.349E-01
 ZBRENT: interpolating
 opt :   0.2628  next Energy=  -215.545067 (dE=-0.141E+02)
 bond charge predicted
       N       E                     dE             d eps       ncg     rms          rms(c)
DAV:   1    -0.215639697682E+03   -0.14330E+00   -0.56342E+00  8432   0.786E+00    0.305E+00
RMM:   2    -0.215566663891E+03    0.73034E-01   -0.27314E-01  7880   0.152E+00    0.270E+00
RMM:   3    -0.215548506449E+03    0.18157E-01   -0.26290E-02  8242   0.460E-01    0.132E+00
RMM:   4    -0.215546162482E+03    0.23440E-02   -0.37748E-02  7760   0.538E-01    0.993E-01
RMM:   5    -0.215539869794E+03    0.62927E-02   -0.93327E-03  7925   0.265E-01    0.412E-01
RMM:   6    -0.215539677364E+03    0.19243E-03   -0.22957E-03  9036   0.106E-01    0.241E-01
RMM:   7    -0.215539585560E+03    0.91804E-04   -0.81477E-04  9572   0.596E-02    0.631E-02
RMM:   8    -0.215539579790E+03    0.57703E-05   -0.17152E-04 10304   0.285E-02    0.406E-02
RMM:   9    -0.215539586120E+03   -0.63302E-05   -0.57986E-05 11949   0.135E-02    0.258E-02
RMM:  10    -0.215539593612E+03   -0.74921E-05   -0.20225E-05 11844   0.799E-03    0.935E-03
RMM:  11    -0.215539593606E+03    0.62646E-08   -0.66703E-06 11384   0.448E-03    0.400E-03
 num prob  num prob  num prob  num prob  num prob  num prob  num prob  num prob  num prob  num prob  num prob  num prob  num prob  num prob  num prob  num prob  num prob  num prob  num prob  num prob  num prob  num prob  num prob  num prob  num prob  num prob  num prob  num prob  num prob  num prob  num prob  num prob  num prob  num prob  num prob  num prob RMM:  12    -0.215539594013E+03   -0.40716E-06   -0.12336E-06  7467   0.205E-03    0.197E-03
 num prob  num prob  num prob  num prob WARNING in EDDRMM: call to ZHEGV failed, returncode =   6  3 15
 num prob  num prob  num prob  num prob  num prob  num prob  num prob  num prob  num prob  num prob  num prob  num prob  num prob  num prob RMM:  13    -0.215539594337E+03   -0.32374E-06   -0.91794E-07  6693   0.156E-03    0.116E-03
 num prob  num prob  num prob  num prob  num prob  num prob  num prob  num prob  num prob  num prob  num prob  num prob  num prob  num prob  num prob  num prob  num prob  num prob  num prob  num prob  num prob  num prob  num prob  num prob  num prob  num prob  num prob  num prob  num prob  num prob  num prob  num prob  num prob  num prob  num prob  num prob  num prob  num prob  num prob  num prob  num prob  num prob  num prob  num prob RMM:  14    -0.215539594174E+03    0.16305E-06   -0.17276E-07  5545   0.110E-03    0.438E-04
 num prob  num prob  num prob  num prob  num prob  num prob  num prob  num prob  num prob  num prob  num prob  num prob  num prob  num prob  num prob  num prob  num prob RMM:  15    -0.215539594210E+03   -0.36340E-07   -0.36032E-07  5583   0.935E-04
   5 F= -.21553959E+03 E0= -.21554502E+03  d E =-.141368E+02  mag=     0.0000
 curvature:  -0.20 expect dE=-0.126E+01 dE for cont linesearch -0.265E-04
 trial: gam= 0.05717 g(F)=  0.325E+01 g(S)=  0.319E+01 ort = 0.122E+00 (trialstep = 0.853E+00)
 search vector abs. value=  0.681E+01
 bond charge predicted
       N       E                     dE             d eps       ncg     rms          rms(c)
DAV:   1    -0.222684042294E+03   -0.71444E+01   -0.71158E+02  7680   0.776E+01    0.168E+01
RMM:   2    -0.220923214827E+03    0.17608E+01   -0.30066E+01  7702   0.151E+01    0.949E+00
RMM:   3    -0.220415556056E+03    0.50766E+00   -0.35036E+00  7917   0.548E+00    0.871E+00
RMM:   4    -0.219765601639E+03    0.64995E+00   -0.83851E-01  8392   0.209E+00    0.354E+00
RMM:   5    -0.219785027104E+03   -0.19425E-01   -0.26756E-01  9806   0.103E+00    0.409E+00
RMM:   6    -0.219773178591E+03    0.11849E-01   -0.98087E-02  8611   0.661E-01    0.202E+00
RMM:   7    -0.219753472566E+03    0.19706E-01   -0.42154E-02  8354   0.481E-01    0.105E+00
RMM:   8    -0.219746784484E+03    0.66881E-02   -0.86317E-03 10318   0.183E-01    0.328E-01
RMM:   9    -0.219746985039E+03   -0.20055E-03   -0.30335E-03 10997   0.969E-02    0.134E-01
RMM:  10    -0.219746976822E+03    0.82171E-05   -0.11298E-03 11176   0.547E-02    0.511E-02
RMM:  11    -0.219747030754E+03   -0.53933E-04   -0.42851E-04 12118   0.257E-02    0.483E-02
WARNING in EDDRMM: call to ZHEGV failed, returncode =   6  3  7
WARNING in EDDRMM: call to ZHEGV failed, returncode =   8  4  6
WARNING in EDDRMM: call to ZHEGV failed, returncode =   6  3  9
RMM:  12    -0.219747059512E+03   -0.28758E-04   -0.20067E-04 13274   0.129E-02    0.520E-02
RMM:  13    -0.219747036457E+03    0.23055E-04   -0.10272E-04 10796   0.132E-02    0.454E-02
RMM:  14    -0.219747025898E+03    0.10559E-04   -0.73320E-05  9396   0.132E-02    0.290E-02
RMM:  15    -0.219747028548E+03   -0.26504E-05   -0.25193E-05 11504   0.574E-03    0.211E-02
RMM:  16    -0.219747031041E+03   -0.24932E-05   -0.12975E-05 10260   0.533E-03    0.104E-02
 num prob RMM:  17    -0.219747031536E+03   -0.49456E-06   -0.70116E-06  9590   0.367E-03    0.355E-03
 num prob  num prob  num prob  num prob  num prob  num prob  num prob  num prob  num prob  num prob  num prob  num prob  num prob  num prob RMM:  18    -0.219747032164E+03   -0.62792E-06   -0.29051E-06  6881   0.202E-03    0.207E-03
 num prob  num prob  num prob RMM:  19    -0.219747032279E+03   -0.11536E-06   -0.15412E-06  6001   0.150E-03    0.122E-03
 num prob  num prob  num prob  num prob  num prob  num prob  num prob  num prob  num prob  num prob  num prob  num prob  num prob  num prob  num prob  num prob  num prob  num prob  num prob  num prob RMM:  20    -0.219747032215E+03    0.64505E-07   -0.69191E-07  5223   0.984E-04
   6 F= -.21974703E+03 E0= -.21974000E+03  d E =-.420744E+01  mag=     0.0000
 trial-energy change:   -4.207438  1 .order   -4.213469   -5.488664   -2.938274
 step:   1.8348(harm=  1.8348)  dis= 0.30392  next Energy=  -221.445639 (dE=-0.591E+01)
 bond charge predicted
       N       E                     dE             d eps       ncg     rms          rms(c)
DAV:   1    -0.225313725123E+03   -0.55667E+01   -0.98036E+02  7680   0.914E+01    0.213E+01
RMM:   2    -0.222540262048E+03    0.27735E+01   -0.42318E+01  7719   0.178E+01    0.118E+01
RMM:   3    -0.221319589607E+03    0.12207E+01   -0.35635E+00  7941   0.572E+00    0.608E+00
RMM:   4    -0.221079069252E+03    0.24052E+00   -0.13856E+00  8127   0.277E+00    0.340E+00
RMM:   5    -0.221073582768E+03    0.54865E-02   -0.34479E-01  9602   0.124E+00    0.248E+00
RMM:   6    -0.221066067647E+03    0.75151E-02   -0.90577E-02  9818   0.617E-01    0.111E+00
RMM:   7    -0.221062255376E+03    0.38123E-02   -0.23808E-02 10846   0.298E-01    0.478E-01
RMM:   8    -0.221062800830E+03   -0.54545E-03   -0.73395E-03 12375   0.137E-01    0.241E-01
RMM:   9    -0.221063060312E+03   -0.25948E-03   -0.29165E-03 11371   0.101E-01    0.803E-02
RMM:  10    -0.221063102620E+03   -0.42308E-04   -0.11300E-03 12392   0.508E-02    0.344E-02
WARNING in EDDRMM: call to ZHEGV failed, returncode =   8  4  8
RMM:  11    -0.221063153195E+03   -0.50575E-04   -0.51030E-04 13363   0.252E-02    0.227E-02
WARNING in EDDRMM: call to ZHEGV failed, returncode =   6  3 15
WARNING in EDDRMM: call to ZHEGV failed, returncode =   6  3 15
RMM:  12    -0.221063177610E+03   -0.24415E-04   -0.22259E-04 13154   0.170E-02    0.110E-02
WARNING in EDDRMM: call to ZHEGV failed, returncode =   6  3 10
RMM:  13    -0.221063189004E+03   -0.11394E-04   -0.11459E-04 13291   0.108E-02    0.790E-03
WARNING in EDDRMM: call to ZHEGV failed, returncode =   8  4 10
 num prob  num prob RMM:  14    -0.221063194090E+03   -0.50859E-05   -0.53144E-05 12697   0.724E-03    0.554E-03
 num prob  num prob WARNING in EDDRMM: call to ZHEGV failed, returncode =   6  3 12
 num prob  num prob  num prob  num prob  num prob  num prob WARNING in EDDRMM: call to ZHEGV failed, returncode =   8  4  8
 num prob  num prob  num prob  num prob  num prob  num prob  num prob WARNING in EDDRMM: call to ZHEGV failed, returncode =   8  4 12
 num prob  num prob  num prob  num prob  num prob  num prob  num prob  num prob  num prob  num prob  num prob  num prob  num prob RMM:  15    -0.221063197323E+03   -0.32337E-05   -0.26074E-05 10830   0.492E-03    0.222E-03
 num prob  num prob  num prob  num prob  num prob  num prob  num prob  num prob  num prob  num prob  num prob  num prob  num prob  num prob  num prob  num prob  num prob  num prob  num prob  num prob  num prob  num prob  num prob  num prob  num prob  num prob  num prob  num prob  num prob  num prob  num prob  num prob  num prob  num prob  num prob  num prob  num prob  num prob  num prob  num prob  num prob  num prob  num prob  num prob  num prob  num prob  num prob  num prob  num prob  num prob  num prob  num prob  num prob  num prob  num prob  num prob  num prob  num prob  num prob  num prob  num prob  num prob  num prob  num prob  num prob  num prob  num prob  num prob  num prob  num prob  num prob  num prob  num prob  num prob  num prob  num prob  num prob RMM:  16    -0.221063198661E+03   -0.13378E-05   -0.12866E-05  8555   0.355E-03    0.181E-03
 num prob  num prob  num prob  num prob  num prob  num prob  num prob  num prob  num prob  num prob  num prob  num prob  num prob  num prob  num prob  num prob  num prob  num prob  num prob  num prob  num prob  num prob  num prob  num prob  num prob  num prob  num prob  num prob  num prob  num prob  num prob  num prob  num prob  num prob  num prob  num prob  num prob  num prob  num prob  num prob  num prob  num prob  num prob  num prob RMM:  17    -0.221063199464E+03   -0.80269E-06   -0.67476E-06  8664   0.285E-03    0.104E-03
 num prob  num prob  num prob  num prob  num prob  num prob  num prob  num prob  num prob  num prob  num prob  num prob  num prob  num prob  num prob  num prob  num prob  num prob  num prob  num prob  num prob  num prob  num prob  num prob  num prob  num prob  num prob  num prob  num prob  num prob  num prob  num prob  num prob  num prob  num prob  num prob  num prob  num prob  num prob  num prob  num prob  num prob  num prob  num prob  num prob  num prob  num prob  num prob  num prob  num prob  num prob  num prob  num prob  num prob  num prob  num prob  num prob  num prob  num prob  num prob  num prob  num prob  num prob  num prob  num prob  num prob  num prob  num prob  num prob  num prob  num prob  num prob  num prob  num prob  num prob  num prob  num prob  num prob  num prob  num prob  num prob  num prob  num prob  num prob  num prob  num prob  num prob RMM:  18    -0.221063199862E+03   -0.39840E-06   -0.31987E-06  7047   0.216E-03    0.110E-03
 num prob  num prob  num prob  num prob  num prob  num prob  num prob  num prob  num prob  num prob  num prob  num prob  num prob  num prob  num prob  num prob  num prob  num prob  num prob  num prob  num prob  num prob  num prob  num prob  num prob  num prob  num prob  num prob  num prob  num prob  num prob  num prob RMM:  19    -0.221063200109E+03   -0.24706E-06   -0.21137E-06  7389   0.191E-03    0.700E-04
 num prob  num prob  num prob  num prob  num prob  num prob  num prob  num prob  num prob  num prob  num prob  num prob  num prob  num prob  num prob  num prob  num prob  num prob  num prob  num prob  num prob  num prob  num prob  num prob  num prob  num prob  num prob  num prob  num prob  num prob  num prob  num prob  num prob  num prob  num prob  num prob  num prob  num prob  num prob  num prob  num prob  num prob  num prob  num prob  num prob  num prob  num prob  num prob  num prob  num prob  num prob  num prob  num prob  num prob  num prob  num prob  num prob  num prob  num prob  num prob  num prob  num prob  num prob  num prob  num prob  num prob RMM:  20    -0.221063200251E+03   -0.14136E-06   -0.99189E-07  6405   0.158E-03    0.338E-04
 num prob  num prob  num prob  num prob  num prob  num prob  num prob  num prob  num prob  num prob  num prob  num prob  num prob  num prob  num prob  num prob  num prob  num prob  num prob  num prob  num prob  num prob  num prob  num prob  num prob  num prob  num prob  num prob  num prob  num prob  num prob  num prob  num prob  num prob  num prob  num prob  num prob  num prob  num prob  num prob  num prob  num prob RMM:  21    -0.221063200280E+03   -0.29759E-07   -0.57738E-07  6391   0.138E-03
   7 F= -.22106320E+03 E0= -.22106236E+03  d E =-.552361E+01  mag=    -0.0000
 curvature:  -0.97 expect dE=-0.964E+01 dE for cont linesearch -0.106E+00
 trial: gam= 1.72669 g(F)=  0.793E+01 g(S)=  0.201E+01 ort =-0.863E+00 (trialstep = 0.262E+00)
 search vector abs. value=  0.272E+02
 bond charge predicted
       N       E                     dE             d eps       ncg     rms          rms(c)
DAV:   1    -0.222578923696E+03   -0.15157E+01   -0.27835E+02  7680   0.463E+01    0.884E+00
RMM:   2    -0.222843377040E+03   -0.26445E+00   -0.10233E+01  7680   0.940E+00    0.562E+00
RMM:   3    -0.222726447636E+03    0.11693E+00   -0.70760E-01  8305   0.253E+00    0.348E+00
RMM:   4    -0.222697708474E+03    0.28739E-01   -0.23914E-01  8254   0.110E+00    0.180E+00
RMM:   5    -0.222676182330E+03    0.21526E-01   -0.59372E-02  8366   0.578E-01    0.481E-01
RMM:   6    -0.222676073173E+03    0.10916E-03   -0.12738E-02 11978   0.203E-01    0.248E-01
RMM:   7    -0.222676372413E+03   -0.29924E-03   -0.39905E-03 12240   0.976E-02    0.116E-01
RMM:   8    -0.222676538942E+03   -0.16653E-03   -0.16410E-03 12517   0.574E-02    0.647E-02
RMM:   9    -0.222676605309E+03   -0.66367E-04   -0.77645E-04 12810   0.351E-02    0.378E-02
RMM:  10    -0.222676640175E+03   -0.34865E-04   -0.36597E-04 12789   0.223E-02    0.143E-02
RMM:  11    -0.222676660331E+03   -0.20156E-04   -0.17874E-04 13057   0.140E-02    0.786E-03
WARNING in EDDRMM: call to ZHEGV failed, returncode =   6  3  7
WARNING in EDDRMM: call to ZHEGV failed, returncode =   8  4  8
WARNING in EDDRMM: call to ZHEGV failed, returncode =   6  3 10
RMM:  12    -0.222676669079E+03   -0.87481E-05   -0.89435E-05 12696   0.923E-03    0.471E-03
WARNING in EDDRMM: call to ZHEGV failed, returncode =   6  3 12
 num prob WARNING in EDDRMM: call to ZHEGV failed, returncode =   8  4 10
 num prob WARNING in EDDRMM: call to ZHEGV failed, returncode =   6  3 12
 num prob  num prob  num prob WARNING in EDDRMM: call to ZHEGV failed, returncode =   6  3 11
WARNING in EDDRMM: call to ZHEGV failed, returncode =   6  3 12
 num prob WARNING in EDDRMM: call to ZHEGV failed, returncode =   8  4 12
 num prob WARNING in EDDRMM: call to ZHEGV failed, returncode =   6  3 11
 num prob RMM:  13    -0.222676673356E+03   -0.42767E-05   -0.41907E-05 11446   0.607E-03    0.164E-03
 num prob  num prob  num prob  num prob  num prob  num prob  num prob  num prob  num prob  num prob  num prob  num prob  num prob  num prob  num prob  num prob  num prob  num prob  num prob  num prob  num prob  num prob  num prob  num prob  num prob  num prob  num prob  num prob  num prob  num prob  num prob  num prob  num prob  num prob  num prob  num prob  num prob  num prob  num prob  num prob  num prob  num prob  num prob  num prob  num prob  num prob  num prob  num prob  num prob  num prob  num prob  num prob  num prob  num prob  num prob  num prob  num prob  num prob  num prob  num prob  num prob  num prob  num prob  num prob  num prob  num prob  num prob  num prob  num prob  num prob  num prob  num prob  num prob  num prob  num prob  num prob  num prob  num prob  num prob  num prob  num prob  num prob  num prob  num prob  num prob  num prob  num prob  num prob  num prob  num prob  num prob  num prob  num prob  num prob  num prob  num prob  num prob RMM:  14    -0.222676675600E+03   -0.22434E-05   -0.20374E-05  8806   0.434E-03    0.120E-03
 num prob  num prob  num prob  num prob  num prob  num prob  num prob  num prob  num prob  num prob  num prob  num prob  num prob  num prob  num prob  num prob  num prob  num prob  num prob  num prob  num prob  num prob  num prob  num prob  num prob  num prob RMM:  15    -0.222676676708E+03   -0.11088E-05   -0.10710E-05  8961   0.344E-03    0.107E-03
 num prob  num prob  num prob  num prob  num prob  num prob  num prob  num prob  num prob  num prob  num prob  num prob  num prob  num prob  num prob  num prob  num prob  num prob  num prob  num prob  num prob  num prob  num prob  num prob  num prob  num prob  num prob  num prob  num prob  num prob  num prob  num prob  num prob  num prob  num prob  num prob  num prob  num prob  num prob  num prob  num prob  num prob  num prob  num prob  num prob  num prob  num prob  num prob  num prob  num prob  num prob  num prob  num prob  num prob  num prob  num prob  num prob  num prob  num prob  num prob  num prob  num prob  num prob  num prob  num prob  num prob  num prob  num prob  num prob  num prob  num prob  num prob  num prob  num prob  num prob  num prob  num prob  num prob  num prob  num prob  num prob  num prob  num prob  num prob  num prob  num prob  num prob  num prob  num prob  num prob  num prob  num prob  num prob  num prob  num prob  num prob  num prob  num prob  num prob  num prob  num prob  num prob  num prob  num prob  num prob  num prob  num prob  num prob  num prob  num prob  num prob  num prob RMM:  16    -0.222676677255E+03   -0.54713E-06   -0.50629E-06  7256   0.259E-03    0.563E-04
 num prob  num prob  num prob  num prob  num prob  num prob  num prob  num prob  num prob  num prob  num prob  num prob  num prob  num prob  num prob  num prob  num prob  num prob  num prob  num prob  num prob  num prob  num prob  num prob  num prob  num prob  num prob  num prob  num prob  num prob  num prob  num prob  num prob  num prob  num prob RMM:  17    -0.222676677568E+03   -0.31225E-06   -0.30435E-06  7596   0.219E-03    0.902E-04
 num prob  num prob  num prob  num prob  num prob  num prob  num prob  num prob  num prob  num prob  num prob  num prob  num prob  num prob  num prob  num prob  num prob  num prob  num prob  num prob  num prob  num prob  num prob  num prob  num prob  num prob  num prob  num prob  num prob  num prob  num prob  num prob  num prob  num prob  num prob  num prob  num prob  num prob  num prob  num prob  num prob  num prob  num prob  num prob  num prob  num prob  num prob  num prob  num prob  num prob  num prob  num prob  num prob  num prob  num prob  num prob  num prob  num prob  num prob  num prob  num prob  num prob  num prob  num prob  num prob  num prob  num prob  num prob  num prob  num prob  num prob  num prob  num prob  num prob  num prob  num prob RMM:  18    -0.222676677731E+03   -0.16364E-06   -0.14484E-06  6630   0.182E-03    0.220E-04
 num prob  num prob  num prob  num prob  num prob  num prob  num prob  num prob  num prob  num prob  num prob  num prob  num prob  num prob  num prob  num prob  num prob  num prob  num prob  num prob  num prob  num prob  num prob  num prob  num prob  num prob  num prob  num prob  num prob  num prob  num prob  num prob  num prob  num prob  num prob  num prob  num prob RMM:  19    -0.222676677831E+03   -0.99186E-07   -0.10248E-06  6987   0.161E-03    0.249E-04
 num prob  num prob  num prob  num prob  num prob  num prob  num prob  num prob  num prob  num prob  num prob  num prob  num prob  num prob  num prob  num prob  num prob  num prob  num prob  num prob  num prob  num prob  num prob  num prob  num prob  num prob  num prob  num prob  num prob  num prob  num prob  num prob  num prob  num prob  num prob  num prob  num prob  num prob  num prob  num prob  num prob  num prob  num prob  num prob  num prob  num prob  num prob  num prob  num prob  num prob  num prob  num prob  num prob  num prob  num prob  num prob  num prob  num prob  num prob  num prob  num prob  num prob  num prob  num prob  num prob  num prob  num prob  num prob  num prob  num prob  num prob  num prob  num prob  num prob  num prob RMM:  20    -0.222676677858E+03   -0.27892E-07   -0.34142E-07  5775   0.130E-03
   8 F= -.22267668E+03 E0= -.22267585E+03  d E =-.161348E+01  mag=     0.0000
 trial-energy change:   -1.613478  1 .order   -1.609339   -2.213088   -1.005591
 step:   0.4724(harm=  0.4802)  dis= 0.18038  next Energy=  -223.082573 (dE=-0.202E+01)
 bond charge predicted
       N       E                     dE             d eps       ncg     rms          rms(c)
DAV:   1    -0.223063696220E+03   -0.38702E+00   -0.18090E+02  7680   0.374E+01    0.787E+00
RMM:   2    -0.223169149638E+03   -0.10545E+00   -0.64035E+00  7680   0.744E+00    0.468E+00
RMM:   3    -0.223085205384E+03    0.83944E-01   -0.46795E-01  8220   0.207E+00    0.232E+00
RMM:   4    -0.223071856565E+03    0.13349E-01   -0.13850E-01  8393   0.838E-01    0.100E+00
RMM:   5    -0.223063203708E+03    0.86529E-02   -0.29308E-02  8563   0.410E-01    0.407E-01
RMM:   6    -0.223063441551E+03   -0.23784E-03   -0.78031E-03 11508   0.168E-01    0.192E-01
RMM:   7    -0.223063577125E+03   -0.13557E-03   -0.25223E-03 11955   0.830E-02    0.110E-01
RMM:   8    -0.223063663299E+03   -0.86174E-04   -0.10337E-03 12232   0.465E-02    0.389E-02
RMM:   9    -0.223063702148E+03   -0.38849E-04   -0.45839E-04 12550   0.269E-02    0.230E-02
RMM:  10    -0.223063723071E+03   -0.20924E-04   -0.20795E-04 13003   0.161E-02    0.130E-02
WARNING in EDDRMM: call to ZHEGV failed, returncode =   6  3  8
RMM:  11    -0.223063734236E+03   -0.11165E-04   -0.10171E-04 12928   0.107E-02    0.595E-03
WARNING in EDDRMM: call to ZHEGV failed, returncode =   6  3  7
WARNING in EDDRMM: call to ZHEGV failed, returncode =   6  3 14
WARNING in EDDRMM: call to ZHEGV failed, returncode =   6  3  9
WARNING in EDDRMM: call to ZHEGV failed, returncode =   6  3 14
RMM:  12    -0.223063739202E+03   -0.49659E-05   -0.50542E-05 12321   0.726E-03    0.429E-03
 num prob  num prob  num prob  num prob  num prob  num prob WARNING in EDDRMM: call to ZHEGV failed, returncode =   6  3 11
 num prob  num prob  num prob  num prob RMM:  13    -0.223063741689E+03   -0.24867E-05   -0.23793E-05 11264   0.492E-03    0.146E-03
 num prob  num prob  num prob  num prob  num prob  num prob  num prob  num prob  num prob  num prob  num prob  num prob  num prob  num prob  num prob  num prob  num prob  num prob  num prob  num prob  num prob  num prob  num prob  num prob  num prob  num prob  num prob  num prob  num prob  num prob  num prob  num prob  num prob  num prob  num prob  num prob  num prob  num prob  num prob  num prob  num prob  num prob  num prob  num prob  num prob  num prob  num prob  num prob  num prob  num prob  num prob  num prob  num prob  num prob  num prob  num prob  num prob  num prob  num prob  num prob  num prob  num prob  num prob  num prob  num prob  num prob  num prob  num prob  num prob  num prob  num prob  num prob RMM:  14    -0.223063742999E+03   -0.13108E-05   -0.11413E-05  7806   0.350E-03    0.138E-03
 num prob  num prob  num prob  num prob  num prob  num prob  num prob  num prob  num prob  num prob  num prob  num prob  num prob  num prob  num prob  num prob  num prob  num prob  num prob  num prob  num prob  num prob  num prob  num prob  num prob RMM:  15    -0.223063743628E+03   -0.62906E-06   -0.63848E-06  8495   0.287E-03    0.103E-03
 num prob  num prob  num prob  num prob  num prob  num prob  num prob  num prob  num prob  num prob  num prob  num prob  num prob  num prob  num prob  num prob  num prob  num prob  num prob  num prob  num prob  num prob  num prob  num prob  num prob  num prob  num prob  num prob  num prob  num prob  num prob  num prob  num prob  num prob  num prob  num prob  num prob  num prob  num prob  num prob  num prob  num prob  num prob  num prob  num prob  num prob  num prob  num prob  num prob  num prob  num prob  num prob  num prob  num prob  num prob  num prob  num prob  num prob  num prob  num prob  num prob  num prob  num prob  num prob  num prob  num prob RMM:  16    -0.223063743916E+03   -0.28771E-06   -0.27559E-06  6506   0.206E-03    0.114E-03
 num prob  num prob  num prob  num prob  num prob  num prob  num prob  num prob  num prob  num prob  num prob  num prob  num prob  num prob  num prob  num prob  num prob  num prob  num prob  num prob  num prob  num prob  num prob  num prob  num prob  num prob  num prob  num prob  num prob  num prob RMM:  17    -0.223063744089E+03   -0.17287E-06   -0.18050E-06  6976   0.180E-03    0.133E-03
 num prob  num prob  num prob  num prob  num prob  num prob  num prob  num prob  num prob  num prob  num prob  num prob  num prob  num prob  num prob  num prob  num prob  num prob  num prob  num prob  num prob  num prob  num prob  num prob  num prob  num prob  num prob  num prob  num prob  num prob  num prob  num prob  num prob  num prob  num prob  num prob  num prob  num prob  num prob  num prob  num prob  num prob  num prob  num prob  num prob  num prob  num prob  num prob RMM:  18    -0.223063744163E+03   -0.74313E-07   -0.91167E-07  6341   0.154E-03
   9 F= -.22306374E+03 E0= -.22306402E+03  d E =-.200054E+01  mag=    -0.0000
 curvature:  -0.77 expect dE=-0.334E+01 dE for cont linesearch -0.857E-03
 trial: gam= 0.01285 g(F)=  0.248E+01 g(S)=  0.184E+01 ort =-0.174E+00 (trialstep = 0.304E+00)
 search vector abs. value=  0.432E+01
 bond charge predicted
       N       E                     dE             d eps       ncg     rms          rms(c)
DAV:   1    -0.224163147936E+03   -0.10994E+01   -0.69375E+01  7872   0.217E+01    0.397E+00
RMM:   2    -0.224150354412E+03    0.12794E-01   -0.18987E+00  7680   0.462E+00    0.228E+00
RMM:   3    -0.224104556588E+03    0.45798E-01   -0.22498E-01  8368   0.117E+00    0.149E+00
RMM:   4    -0.224089583806E+03    0.14973E-01   -0.46521E-02  7740   0.563E-01    0.693E-01
RMM:   5    -0.224084464228E+03    0.51196E-02   -0.13900E-02  7959   0.291E-01    0.166E-01
RMM:   6    -0.224084459233E+03    0.49943E-05   -0.19376E-03 11301   0.837E-02    0.944E-02
RMM:   7    -0.224084447833E+03    0.11400E-04   -0.37645E-04 11129   0.358E-02    0.312E-02
RMM:   8    -0.224084455118E+03   -0.72842E-05   -0.10075E-04 11935   0.175E-02    0.117E-02
RMM:   9    -0.224084458562E+03   -0.34447E-05   -0.35751E-05 12903   0.859E-03    0.593E-03
WARNING in EDDRMM: call to ZHEGV failed, returncode =   6  3  9
WARNING in EDDRMM: call to ZHEGV failed, returncode =   6  3  7
WARNING in EDDRMM: call to ZHEGV failed, returncode =   6  3 10
RMM:  10    -0.224084460062E+03   -0.14998E-05   -0.13506E-05 12300   0.511E-03    0.235E-03
 num prob WARNING in EDDRMM: call to ZHEGV failed, returncode =   8  4 12
 num prob  num prob WARNING in EDDRMM: call to ZHEGV failed, returncode =   6  3  9
 num prob  num prob  num prob RMM:  11    -0.224084460684E+03   -0.62173E-06   -0.57174E-06 10665   0.333E-03    0.129E-03
 num prob  num prob  num prob  num prob  num prob  num prob  num prob  num prob  num prob  num prob  num prob  num prob  num prob  num prob  num prob  num prob WARNING in EDDRMM: call to ZHEGV failed, returncode =   8  4 10
 num prob  num prob  num prob  num prob  num prob  num prob  num prob  num prob  num prob  num prob  num prob  num prob  num prob  num prob  num prob  num prob  num prob  num prob  num prob  num prob  num prob  num prob  num prob  num prob  num prob  num prob  num prob WARNING in EDDRMM: call to ZHEGV failed, returncode =   8  4  9
 num prob  num prob  num prob  num prob  num prob  num prob  num prob  num prob  num prob  num prob WARNING in EDDRMM: call to ZHEGV failed, returncode =   8  4  9
 num prob  num prob RMM:  12    -0.224084460890E+03   -0.20640E-06   -0.19604E-06  8204   0.237E-03    0.851E-04
 num prob  num prob  num prob  num prob  num prob  num prob  num prob  num prob  num prob  num prob  num prob  num prob  num prob  num prob  num prob  num prob  num prob  num prob  num prob  num prob  num prob  num prob  num prob  num prob  num prob  num prob  num prob  num prob  num prob  num prob  num prob  num prob  num prob  num prob  num prob  num prob  num prob  num prob  num prob  num prob  num prob  num prob  num prob  num prob  num prob  num prob  num prob  num prob  num prob RMM:  13    -0.224084461022E+03   -0.13161E-06   -0.11303E-06  7547   0.201E-03    0.518E-04
 num prob  num prob  num prob  num prob  num prob  num prob  num prob  num prob  num prob  num prob  num prob  num prob  num prob  num prob  num prob  num prob  num prob  num prob  num prob  num prob  num prob  num prob  num prob  num prob  num prob  num prob  num prob  num prob  num prob  num prob  num prob  num prob  num prob  num prob  num prob  num prob  num prob  num prob  num prob  num prob  num prob  num prob  num prob  num prob  num prob  num prob  num prob  num prob  num prob  num prob  num prob  num prob  num prob  num prob  num prob  num prob  num prob  num prob  num prob  num prob  num prob  num prob  num prob  num prob  num prob  num prob  num prob RMM:  14    -0.224084461063E+03   -0.41447E-07   -0.35235E-07  6591   0.159E-03
  10 F= -.22408446E+03 E0= -.22408666E+03  d E =-.102072E+01  mag=     0.0000
 trial-energy change:   -1.020717  1 .order   -1.017294   -1.313040   -0.721548
 step:   0.6494(harm=  0.6750)  dis= 0.07925  next Energy=  -224.499192 (dE=-0.144E+01)
 bond charge predicted
       N       E                     dE             d eps       ncg     rms          rms(c)
DAV:   1    -0.224623783368E+03   -0.53932E+00   -0.89627E+01  7680   0.247E+01    0.466E+00
RMM:   2    -0.224603336587E+03    0.20447E-01   -0.24332E+00  7680   0.522E+00    0.267E+00
RMM:   3    -0.224541795402E+03    0.61541E-01   -0.29151E-01  8354   0.132E+00    0.170E+00
RMM:   4    -0.224524475892E+03    0.17320E-01   -0.62238E-02  7736   0.655E-01    0.722E-01
RMM:   5    -0.224518519299E+03    0.59566E-02   -0.16067E-02  8063   0.311E-01    0.191E-01
RMM:   6    -0.224518460053E+03    0.59246E-04   -0.23454E-03 11302   0.875E-02    0.104E-01
RMM:   7    -0.224518457774E+03    0.22786E-05   -0.45453E-04 11191   0.397E-02    0.350E-02
RMM:   8    -0.224518466626E+03   -0.88515E-05   -0.12946E-04 11816   0.193E-02    0.137E-02
RMM:   9    -0.224518471115E+03   -0.44887E-05   -0.47331E-05 12697   0.972E-03    0.590E-03
WARNING in EDDRMM: call to ZHEGV failed, returncode =   6  3 16
WARNING in EDDRMM: call to ZHEGV failed, returncode =   6  3 16
RMM:  10    -0.224518473035E+03   -0.19206E-05   -0.18495E-05 12363   0.580E-03    0.259E-03
WARNING in EDDRMM: call to ZHEGV failed, returncode =   6  3 12
 num prob  num prob WARNING in EDDRMM: call to ZHEGV failed, returncode =   6  3 14
WARNING in EDDRMM: call to ZHEGV failed, returncode =   6  3 12
 num prob  num prob  num prob RMM:  11    -0.224518473857E+03   -0.82204E-06   -0.75522E-06 10991   0.364E-03    0.145E-03
 num prob  num prob WARNING in EDDRMM: call to ZHEGV failed, returncode =   6  3  9
 num prob  num prob  num prob  num prob  num prob  num prob  num prob  num prob  num prob  num prob  num prob  num prob  num prob  num prob WARNING in EDDRMM: call to ZHEGV failed, returncode =   6  3  9
 num prob  num prob  num prob  num prob  num prob  num prob  num prob  num prob WARNING in EDDRMM: call to ZHEGV failed, returncode =   8  4  6
 num prob  num prob  num prob  num prob RMM:  12    -0.224518474165E+03   -0.30793E-06   -0.28731E-06  8696   0.252E-03    0.979E-04
 num prob  num prob  num prob  num prob  num prob  num prob  num prob  num prob  num prob  num prob  num prob  num prob  num prob  num prob  num prob  num prob  num prob  num prob  num prob  num prob  num prob  num prob  num prob  num prob  num prob  num prob  num prob  num prob  num prob  num prob  num prob  num prob  num prob  num prob  num prob  num prob  num prob  num prob  num prob  num prob  num prob  num prob  num prob  num prob  num prob  num prob  num prob  num prob  num prob  num prob  num prob  num prob  num prob  num prob  num prob  num prob  num prob  num prob  num prob  num prob  num prob  num prob  num prob  num prob  num prob  num prob  num prob  num prob  num prob  num prob  num prob  num prob  num prob  num prob  num prob  num prob  num prob RMM:  13    -0.224518474287E+03   -0.12143E-06   -0.10293E-06  7291   0.199E-03    0.602E-04
 num prob  num prob  num prob  num prob  num prob  num prob  num prob  num prob  num prob  num prob  num prob  num prob  num prob  num prob  num prob  num prob  num prob  num prob  num prob  num prob  num prob  num prob  num prob  num prob  num prob  num prob  num prob  num prob  num prob  num prob  num prob  num prob  num prob  num prob  num prob  num prob  num prob  num prob  num prob  num prob  num prob  num prob  num prob  num prob  num prob  num prob  num prob  num prob RMM:  14    -0.224518474372E+03   -0.85205E-07   -0.72346E-07  7020   0.170E-03
  11 F= -.22451847E+03 E0= -.22452141E+03  d E =-.145473E+01  mag=     0.0000
 curvature:  -0.34 expect dE=-0.292E+00 dE for cont linesearch -0.137E-02
 trial: gam= 0.17008 g(F)=  0.640E+00 g(S)=  0.229E+00 ort = 0.133E+00 (trialstep = 0.373E+00)
 search vector abs. value=  0.104E+01
 bond charge predicted
       N       E                     dE             d eps       ncg     rms          rms(c)
DAV:   1    -0.224861458270E+03   -0.34298E+00   -0.30699E+01  7872   0.166E+01    0.334E+00
RMM:   2    -0.224788743911E+03    0.72714E-01   -0.98031E-01  7680   0.304E+00    0.208E+00
RMM:   3    -0.224758754593E+03    0.29989E-01   -0.13714E-01  7683   0.116E+00    0.141E+00
RMM:   4    -0.224757502740E+03    0.12519E-02   -0.21435E-02  8383   0.375E-01    0.656E-01
RMM:   5    -0.224756539265E+03    0.96348E-03   -0.78283E-03  8348   0.205E-01    0.235E-01
RMM:   6    -0.224756117874E+03    0.42139E-03   -0.15250E-03 10140   0.806E-02    0.121E-01
RMM:   7    -0.224756121800E+03   -0.39257E-05   -0.35781E-04 11297   0.353E-02    0.383E-02
RMM:   8    -0.224756121773E+03    0.26779E-07   -0.10661E-04 12427   0.185E-02    0.234E-02
RMM:   9    -0.224756122932E+03   -0.11595E-05   -0.31414E-05 12769   0.860E-03    0.112E-02
WARNING in EDDRMM: call to ZHEGV failed, returncode =   6  3 15
RMM:  10    -0.224756121067E+03    0.18653E-05   -0.11211E-05 12520   0.581E-03    0.531E-03
 num prob  num prob  num prob  num prob  num prob  num prob  num prob  num prob  num prob  num prob  num prob  num prob  num prob  num prob  num prob RMM:  11    -0.224756121327E+03   -0.25948E-06   -0.48491E-06 11358   0.329E-03    0.155E-03
 num prob  num prob  num prob  num prob  num prob  num prob  num prob  num prob  num prob  num prob  num prob  num prob  num prob  num prob  num prob  num prob  num prob  num prob  num prob  num prob  num prob  num prob  num prob  num prob  num prob  num prob  num prob  num prob  num prob  num prob  num prob  num prob WARNING in EDDRMM: call to ZHEGV failed, returncode =   6  3 10
 num prob  num prob  num prob  num prob  num prob  num prob  num prob  num prob  num prob  num prob  num prob  num prob  num prob  num prob  num prob  num prob  num prob  num prob  num prob  num prob  num prob  num prob  num prob  num prob  num prob  num prob  num prob  num prob  num prob  num prob  num prob  num prob  num prob  num prob  num prob RMM:  12    -0.224756121378E+03   -0.50888E-07   -0.16321E-06  8160   0.219E-03    0.109E-03
 num prob  num prob  num prob  num prob  num prob  num prob  num prob  num prob  num prob  num prob  num prob  num prob  num prob  num prob  num prob  num prob  num prob  num prob  num prob  num prob  num prob  num prob  num prob  num prob  num prob  num prob  num prob  num prob  num prob  num prob  num prob  num prob  num prob RMM:  13    -0.224756121511E+03   -0.13350E-06   -0.89453E-07  7806   0.172E-03    0.467E-04
 num prob  num prob  num prob  num prob  num prob  num prob  num prob  num prob  num prob  num prob  num prob  num prob  num prob  num prob  num prob  num prob  num prob  num prob  num prob  num prob  num prob  num prob  num prob  num prob  num prob  num prob  num prob  num prob  num prob  num prob  num prob  num prob  num prob  num prob  num prob  num prob  num prob  num prob  num prob  num prob  num prob  num prob  num prob  num prob  num prob  num prob  num prob  num prob  num prob  num prob  num prob  num prob  num prob  num prob  num prob  num prob  num prob RMM:  14    -0.224756121496E+03    0.14563E-07   -0.33339E-07  6364   0.137E-03
  12 F= -.22475612E+03 E0= -.22475904E+03  d E =-.237647E+00  mag=    -0.0000
 trial-energy change:   -0.237647  1 .order   -0.238678   -0.332696   -0.144660
 step:   0.6785(harm=  0.6602)  dis= 0.03986  next Energy=  -224.814741 (dE=-0.296E+00)
 bond charge predicted
       N       E                     dE             d eps       ncg     rms          rms(c)
DAV:   1    -0.224886639268E+03   -0.13052E+00   -0.20506E+01  7872   0.136E+01    0.263E+00
RMM:   2    -0.224837830696E+03    0.48809E-01   -0.65429E-01  7680   0.247E+00    0.160E+00
RMM:   3    -0.224818220320E+03    0.19610E-01   -0.88916E-02  7690   0.934E-01    0.110E+00
RMM:   4    -0.224817352809E+03    0.86751E-03   -0.14256E-02  8483   0.299E-01    0.550E-01
RMM:   5    -0.224816664512E+03    0.68830E-03   -0.54002E-03  8336   0.170E-01    0.197E-01
RMM:   6    -0.224816368424E+03    0.29609E-03   -0.10713E-03 10126   0.686E-02    0.996E-02
RMM:   7    -0.224816370401E+03   -0.19771E-05   -0.25126E-04 11195   0.301E-02    0.318E-02
RMM:   8    -0.224816370586E+03   -0.18511E-06   -0.75905E-05 12460   0.153E-02    0.194E-02
RMM:   9    -0.224816371166E+03   -0.57952E-06   -0.23399E-05 12679   0.758E-03    0.926E-03
RMM:  10    -0.224816369438E+03    0.17277E-05   -0.83279E-06 12440   0.486E-03    0.421E-03
 num prob  num prob  num prob  num prob  num prob  num prob  num prob  num prob  num prob  num prob  num prob  num prob  num prob  num prob  num prob  num prob  num prob  num prob  num prob  num prob  num prob  num prob  num prob  num prob  num prob  num prob RMM:  11    -0.224816369562E+03   -0.12409E-06   -0.31183E-06 10481   0.282E-03    0.138E-03
 num prob  num prob  num prob  num prob  num prob  num prob  num prob  num prob  num prob  num prob  num prob  num prob  num prob  num prob  num prob  num prob  num prob  num prob  num prob  num prob  num prob  num prob  num prob  num prob  num prob  num prob  num prob  num prob  num prob  num prob  num prob  num prob  num prob  num prob  num prob  num prob  num prob  num prob  num prob  num prob  num prob  num prob  num prob  num prob  num prob  num prob  num prob  num prob  num prob  num prob  num prob RMM:  12    -0.224816369573E+03   -0.11016E-07   -0.14527E-06  7891   0.202E-03    0.949E-04
 num prob  num prob  num prob  num prob  num prob  num prob  num prob  num prob  num prob  num prob  num prob  num prob  num prob  num prob  num prob  num prob  num prob  num prob  num prob  num prob  num prob  num prob  num prob  num prob  num prob  num prob  num prob  num prob  num prob  num prob  num prob  num prob RMM:  13    -0.224816369690E+03   -0.11709E-06   -0.74165E-07  7180   0.155E-03    0.503E-04
 num prob  num prob  num prob  num prob  num prob  num prob  num prob  num prob  num prob  num prob  num prob  num prob  num prob  num prob  num prob  num prob  num prob  num prob  num prob  num prob  num prob  num prob  num prob  num prob  num prob  num prob  num prob  num prob  num prob  num prob  num prob  num prob  num prob  num prob  num prob  num prob  num prob  num prob  num prob  num prob  num prob  num prob  num prob  num prob  num prob  num prob  num prob  num prob  num prob  num prob  num prob  num prob RMM:  14    -0.224816369681E+03    0.90004E-08   -0.21275E-07  5896   0.123E-03
  13 F= -.22481637E+03 E0= -.22481887E+03  d E =-.297895E+00  mag=    -0.0000
 curvature:  -0.38 expect dE=-0.167E+00 dE for cont linesearch -0.282E-04
 trial: gam= 0.54225 g(F)=  0.269E+00 g(S)=  0.165E+00 ort = 0.875E-02 (trialstep = 0.434E+00)
 search vector abs. value=  0.750E+00
 bond charge predicted
       N       E                     dE             d eps       ncg     rms          rms(c)
DAV:   1    -0.224911051531E+03   -0.94682E-01   -0.30682E+01  7728   0.156E+01    0.201E+00
RMM:   2    -0.224967845821E+03   -0.56794E-01   -0.81808E-01  7680   0.279E+00    0.137E+00
RMM:   3    -0.224965046787E+03    0.27990E-02   -0.49412E-02  8989   0.640E-01    0.906E-01
RMM:   4    -0.224963331334E+03    0.17155E-02   -0.11931E-02  8488   0.246E-01    0.222E-01
RMM:   5    -0.224963085648E+03    0.24569E-03   -0.22886E-03  9253   0.117E-01    0.101E-01
RMM:   6    -0.224962996573E+03    0.89075E-04   -0.55161E-04 11172   0.446E-02    0.597E-02
RMM:   7    -0.224963000776E+03   -0.42032E-05   -0.18282E-04 11854   0.223E-02    0.285E-02
RMM:   8    -0.224963007300E+03   -0.65246E-05   -0.71593E-05 11838   0.129E-02    0.769E-03
RMM:   9    -0.224963010524E+03   -0.32232E-05   -0.31219E-05 12668   0.704E-03    0.454E-03
 num prob  num prob  num prob  num prob  num prob  num prob  num prob  num prob  num prob  num prob  num prob  num prob  num prob  num prob  num prob  num prob  num prob  num prob  num prob RMM:  10    -0.224963011669E+03   -0.11455E-05   -0.10421E-05 10677   0.401E-03    0.244E-03
 num prob  num prob  num prob  num prob  num prob  num prob  num prob  num prob  num prob  num prob  num prob  num prob  num prob  num prob  num prob  num prob  num prob  num prob  num prob RMM:  11    -0.224963012380E+03   -0.71102E-06   -0.48573E-06  9136   0.293E-03    0.741E-04
 num prob  num prob  num prob  num prob  num prob  num prob  num prob  num prob  num prob  num prob  num prob  num prob  num prob  num prob  num prob  num prob  num prob  num prob  num prob  num prob  num prob  num prob  num prob  num prob  num prob  num prob  num prob  num prob  num prob  num prob  num prob  num prob  num prob  num prob  num prob  num prob  num prob  num prob  num prob  num prob  num prob  num prob  num prob  num prob  num prob  num prob  num prob  num prob  num prob  num prob  num prob  num prob  num prob  num prob  num prob  num prob  num prob  num prob  num prob  num prob  num prob  num prob  num prob RMM:  12    -0.224963012547E+03   -0.16674E-06   -0.17832E-06  7462   0.210E-03    0.773E-04
 num prob  num prob  num prob  num prob  num prob  num prob  num prob  num prob  num prob  num prob  num prob  num prob  num prob  num prob  num prob  num prob  num prob  num prob  num prob  num prob  num prob  num prob  num prob  num prob  num prob  num prob  num prob  num prob  num prob  num prob  num prob  num prob  num prob  num prob  num prob  num prob  num prob  num prob  num prob  num prob  num prob RMM:  13    -0.224963012636E+03   -0.89534E-07   -0.10736E-06  7242   0.175E-03    0.569E-04
 num prob  num prob  num prob  num prob  num prob  num prob  num prob  num prob  num prob  num prob  num prob  num prob  num prob  num prob  num prob  num prob  num prob  num prob  num prob  num prob  num prob  num prob  num prob  num prob  num prob  num prob  num prob  num prob  num prob  num prob  num prob  num prob  num prob  num prob  num prob  num prob  num prob  num prob  num prob  num prob  num prob  num prob  num prob  num prob  num prob  num prob  num prob  num prob  num prob  num prob  num prob  num prob  num prob  num prob  num prob  num prob  num prob  num prob  num prob  num prob  num prob  num prob  num prob  num prob  num prob RMM:  14    -0.224963012663E+03   -0.26328E-07   -0.38032E-07  6102   0.144E-03
  14 F= -.22496301E+03 E0= -.22496469E+03  d E =-.146643E+00  mag=    -0.0000
 trial-energy change:   -0.146643  1 .order   -0.146476   -0.190801   -0.102150
 step:   0.9346(harm=  0.9346)  dis= 0.05549  next Energy=  -225.021698 (dE=-0.205E+00)
 bond charge predicted
       N       E                     dE             d eps       ncg     rms          rms(c)
DAV:   1    -0.224950484649E+03    0.12528E-01   -0.40720E+01  7712   0.180E+01    0.240E+00
RMM:   2    -0.225026642288E+03   -0.76158E-01   -0.10955E+00  7682   0.324E+00    0.166E+00
RMM:   3    -0.225022978754E+03    0.36635E-02   -0.66356E-02  9010   0.742E-01    0.111E+00
RMM:   4    -0.225020856306E+03    0.21224E-02   -0.16269E-02  8506   0.290E-01    0.279E-01
RMM:   5    -0.225020376581E+03    0.47973E-03   -0.33349E-03  9072   0.141E-01    0.122E-01
RMM:   6    -0.225020235872E+03    0.14071E-03   -0.78504E-04 10962   0.533E-02    0.703E-02
RMM:   7    -0.225020239954E+03   -0.40821E-05   -0.25020E-04 11782   0.260E-02    0.341E-02
RMM:   8    -0.225020247943E+03   -0.79893E-05   -0.97171E-05 11648   0.153E-02    0.945E-03
RMM:   9    -0.225020252301E+03   -0.43579E-05   -0.42832E-05 12654   0.825E-03    0.542E-03
WARNING in EDDRMM: call to ZHEGV failed, returncode =   8  4 11
 num prob  num prob  num prob  num prob RMM:  10    -0.225020253792E+03   -0.14909E-05   -0.13868E-05 11666   0.457E-03    0.292E-03
 num prob  num prob  num prob  num prob  num prob  num prob  num prob  num prob  num prob  num prob  num prob  num prob RMM:  11    -0.225020254698E+03   -0.90587E-06   -0.64035E-06  9952   0.322E-03    0.933E-04
 num prob  num prob  num prob  num prob  num prob  num prob  num prob  num prob  num prob  num prob  num prob  num prob  num prob  num prob  num prob  num prob  num prob  num prob  num prob  num prob  num prob  num prob  num prob  num prob  num prob  num prob  num prob  num prob  num prob  num prob  num prob  num prob  num prob  num prob  num prob  num prob  num prob  num prob  num prob  num prob  num prob  num prob  num prob  num prob  num prob  num prob  num prob  num prob  num prob  num prob  num prob  num prob  num prob  num prob  num prob  num prob  num prob  num prob RMM:  12    -0.225020254959E+03   -0.26117E-06   -0.24058E-06  7429   0.224E-03    0.820E-04
 num prob  num prob  num prob  num prob  num prob  num prob  num prob  num prob  num prob  num prob  num prob  num prob  num prob  num prob  num prob  num prob  num prob  num prob  num prob  num prob  num prob  num prob  num prob  num prob  num prob  num prob  num prob  num prob  num prob  num prob  num prob RMM:  13    -0.225020255065E+03   -0.10579E-06   -0.13514E-06  7640   0.189E-03    0.565E-04
 num prob  num prob  num prob  num prob  num prob  num prob  num prob  num prob  num prob  num prob  num prob  num prob  num prob  num prob  num prob  num prob  num prob  num prob  num prob  num prob  num prob  num prob  num prob  num prob  num prob  num prob  num prob  num prob  num prob  num prob  num prob  num prob  num prob  num prob  num prob  num prob  num prob  num prob  num prob  num prob  num prob  num prob  num prob  num prob  num prob  num prob  num prob  num prob  num prob  num prob  num prob  num prob  num prob  num prob  num prob  num prob  num prob  num prob  num prob  num prob RMM:  14    -0.225020255096E+03   -0.31312E-07   -0.45843E-07  6141   0.148E-03
  15 F= -.22502026E+03 E0= -.22502084E+03  d E =-.203885E+00  mag=    -0.0000
 curvature:  -0.80 expect dE=-0.142E+00 dE for cont linesearch -0.622E-04
 trial: gam= 0.42557 g(F)=  0.125E+00 g(S)=  0.533E-01 ort =-0.765E-02 (trialstep = 0.534E+00)
 search vector abs. value=  0.308E+00
 bond charge predicted
       N       E                     dE             d eps       ncg     rms          rms(c)
DAV:   1    -0.225070032975E+03   -0.49778E-01   -0.18415E+01  7952   0.119E+01    0.158E+00
RMM:   2    -0.225096396672E+03   -0.26364E-01   -0.47858E-01  7680   0.213E+00    0.929E-01
RMM:   3    -0.225092545575E+03    0.38511E-02   -0.39273E-02  8748   0.544E-01    0.556E-01
RMM:   4    -0.225091216142E+03    0.13294E-02   -0.83444E-03  7975   0.228E-01    0.337E-01
RMM:   5    -0.225090568604E+03    0.64754E-03   -0.18149E-03  8714   0.103E-01    0.858E-02
RMM:   6    -0.225090534844E+03    0.33761E-04   -0.35186E-04 10526   0.392E-02    0.396E-02
RMM:   7    -0.225090537766E+03   -0.29224E-05   -0.87223E-05 12104   0.162E-02    0.159E-02
RMM:   8    -0.225090537830E+03   -0.64152E-07   -0.26868E-05 12478   0.869E-03    0.563E-03
WARNING in EDDRMM: call to ZHEGV failed, returncode =   8  4 10
RMM:   9    -0.225090538532E+03   -0.70225E-06   -0.97544E-06 12244   0.434E-03    0.365E-03
 num prob  num prob  num prob  num prob  num prob  num prob  num prob  num prob  num prob  num prob  num prob  num prob  num prob  num prob  num prob  num prob  num prob  num prob  num prob  num prob RMM:  10    -0.225090538621E+03   -0.88858E-07   -0.35959E-06  9789   0.274E-03    0.179E-03
 num prob  num prob  num prob  num prob  num prob  num prob  num prob  num prob  num prob  num prob  num prob  num prob  num prob  num prob  num prob RMM:  11    -0.225090538532E+03    0.89291E-07   -0.16305E-06  8252   0.202E-03    0.510E-04
 num prob  num prob  num prob  num prob  num prob  num prob  num prob  num prob  num prob  num prob  num prob  num prob  num prob  num prob  num prob  num prob  num prob  num prob  num prob  num prob  num prob  num prob  num prob  num prob  num prob  num prob  num prob  num prob  num prob  num prob  num prob  num prob  num prob  num prob  num prob  num prob  num prob  num prob  num prob  num prob  num prob  num prob  num prob RMM:  12    -0.225090538611E+03   -0.79253E-07   -0.63880E-07  6608   0.150E-03
  16 F= -.22509054E+03 E0= -.22509005E+03  d E =-.702835E-01  mag=     0.0000
 trial-energy change:   -0.070284  1 .order   -0.070307   -0.093628   -0.046986
 step:   1.0725(harm=  1.0725)  dis= 0.02690  next Energy=  -225.114229 (dE=-0.940E-01)
 bond charge predicted
       N       E                     dE             d eps       ncg     rms          rms(c)
DAV:   1    -0.225093865524E+03   -0.33270E-02   -0.18689E+01  7680   0.120E+01    0.158E+00
RMM:   2    -0.225120513070E+03   -0.26648E-01   -0.48379E-01  7680   0.214E+00    0.923E-01
RMM:   3    -0.225116806825E+03    0.37062E-02   -0.39827E-02  8727   0.548E-01    0.569E-01
RMM:   4    -0.225115178825E+03    0.16280E-02   -0.85337E-03  7960   0.230E-01    0.352E-01
RMM:   5    -0.225114521788E+03    0.65704E-03   -0.19613E-03  8642   0.107E-01    0.871E-02
RMM:   6    -0.225114486541E+03    0.35247E-04   -0.35128E-04 10495   0.395E-02    0.403E-02
RMM:   7    -0.225114489374E+03   -0.28333E-05   -0.88848E-05 12055   0.166E-02    0.164E-02
RMM:   8    -0.225114489327E+03    0.46475E-07   -0.26732E-05 12481   0.877E-03    0.593E-03
RMM:   9    -0.225114489992E+03   -0.66412E-06   -0.97425E-06 12351   0.438E-03    0.377E-03
 num prob  num prob  num prob  num prob  num prob  num prob  num prob  num prob  num prob  num prob  num prob  num prob  num prob  num prob  num prob  num prob  num prob  num prob  num prob RMM:  10    -0.225114490050E+03   -0.58248E-07   -0.34178E-06  9796   0.273E-03    0.191E-03
 num prob  num prob  num prob  num prob  num prob  num prob  num prob  num prob  num prob  num prob  num prob  num prob  num prob  num prob  num prob RMM:  11    -0.225114489915E+03    0.13463E-06   -0.16389E-06  8347   0.206E-03    0.542E-04
 num prob  num prob  num prob  num prob  num prob  num prob  num prob  num prob  num prob  num prob  num prob  num prob  num prob  num prob  num prob  num prob  num prob  num prob  num prob  num prob  num prob  num prob  num prob  num prob  num prob  num prob  num prob  num prob  num prob  num prob  num prob  num prob  num prob  num prob  num prob RMM:  12    -0.225114489999E+03   -0.84201E-07   -0.59447E-07  6626   0.149E-03
  17 F= -.22511449E+03 E0= -.22511310E+03  d E =-.942349E-01  mag=    -0.0000
 curvature:  -0.94 expect dE=-0.120E+00 dE for cont linesearch -0.323E-05
 trial: gam= 0.69153 g(F)=  0.788E-01 g(S)=  0.485E-01 ort = 0.103E-02 (trialstep = 0.642E+00)
 search vector abs. value=  0.276E+00
 bond charge predicted
       N       E                     dE             d eps       ncg     rms          rms(c)
DAV:   1    -0.225136774631E+03   -0.22285E-01   -0.26720E+01  7680   0.147E+01    0.211E+00
RMM:   2    -0.225166198463E+03   -0.29424E-01   -0.82212E-01  7680   0.269E+00    0.132E+00
RMM:   3    -0.225159934167E+03    0.62643E-02   -0.53004E-02  8168   0.753E-01    0.957E-01
RMM:   4    -0.225159778385E+03    0.15578E-03   -0.15634E-02  7791   0.313E-01    0.748E-01
RMM:   5    -0.225157593192E+03    0.21852E-02   -0.50156E-03  8168   0.169E-01    0.152E-01
RMM:   6    -0.225157634217E+03   -0.41025E-04   -0.78371E-04 11974   0.534E-02    0.990E-02
RMM:   7    -0.225157646823E+03   -0.12606E-04   -0.20020E-04 11541   0.272E-02    0.325E-02
RMM:   8    -0.225157654051E+03   -0.72280E-05   -0.57686E-05 12496   0.144E-02    0.107E-02
RMM:   9    -0.225157657092E+03   -0.30408E-05   -0.21390E-05 12734   0.761E-03    0.689E-03
WARNING in EDDRMM: call to ZHEGV failed, returncode =   6  3 10
WARNING in EDDRMM: call to ZHEGV failed, returncode =   8  4  6
 num prob  num prob WARNING in EDDRMM: call to ZHEGV failed, returncode =   6  3 12
WARNING in EDDRMM: call to ZHEGV failed, returncode =   8  4 14
WARNING in EDDRMM: call to ZHEGV failed, returncode =   8  4  8
 num prob RMM:  10    -0.225157658445E+03   -0.13536E-05   -0.80961E-06 12268   0.438E-03    0.319E-03
 num prob WARNING in EDDRMM: call to ZHEGV failed, returncode =   6  3 10
 num prob  num prob  num prob  num prob  num prob  num prob  num prob  num prob  num prob  num prob  num prob  num prob  num prob  num prob  num prob  num prob  num prob  num prob  num prob  num prob  num prob  num prob  num prob  num prob  num prob WARNING in EDDRMM: call to ZHEGV failed, returncode =   8  4 10
 num prob  num prob  num prob  num prob  num prob  num prob  num prob  num prob  num prob  num prob  num prob  num prob  num prob  num prob  num prob  num prob  num prob  num prob  num prob  num prob  num prob  num prob  num prob  num prob  num prob RMM:  11    -0.225157659507E+03   -0.10618E-05   -0.22479E-06  9587   0.274E-03    0.161E-03
 num prob  num prob  num prob  num prob  num prob  num prob  num prob  num prob  num prob  num prob  num prob  num prob  num prob  num prob  num prob  num prob  num prob  num prob  num prob  num prob  num prob  num prob  num prob  num prob  num prob  num prob  num prob  num prob  num prob  num prob  num prob  num prob  num prob  num prob  num prob  num prob  num prob  num prob  num prob  num prob  num prob  num prob  num prob  num prob  num prob  num prob  num prob  num prob  num prob RMM:  12    -0.225157659445E+03    0.62599E-07   -0.12767E-06  8310   0.207E-03    0.788E-04
 num prob  num prob  num prob  num prob  num prob  num prob  num prob  num prob  num prob  num prob  num prob  num prob  num prob  num prob  num prob  num prob  num prob  num prob  num prob  num prob  num prob  num prob  num prob  num prob  num prob  num prob  num prob  num prob  num prob  num prob  num prob  num prob  num prob  num prob  num prob  num prob  num prob  num prob  num prob  num prob  num prob  num prob  num prob  num prob  num prob  num prob  num prob  num prob  num prob  num prob  num prob  num prob  num prob  num prob  num prob  num prob  num prob  num prob  num prob  num prob  num prob  num prob  num prob  num prob  num prob  num prob  num prob  num prob  num prob  num prob  num prob  num prob  num prob  num prob  num prob  num prob  num prob  num prob  num prob  num prob  num prob RMM:  13    -0.225157659499E+03   -0.54526E-07   -0.47400E-07  6926   0.158E-03
  18 F= -.22515766E+03 E0= -.22515543E+03  d E =-.431695E-01  mag=    -0.0000
 trial-energy change:   -0.043169  1 .order   -0.043220   -0.082169   -0.004271
 step:   0.6771(harm=  0.6771)  dis= 0.02161  next Energy=  -225.157827 (dE=-0.433E-01)
 bond charge predicted
       N       E                     dE             d eps       ncg     rms          rms(c)
DAV:   1    -0.225157702528E+03   -0.43083E-04   -0.80486E-02  8064   0.806E-01    0.114E-01
RMM:   2    -0.225157793967E+03   -0.91439E-04   -0.24190E-03  7680   0.146E-01    0.735E-02
RMM:   3    -0.225157775090E+03    0.18877E-04   -0.16354E-04  8210   0.413E-02    0.537E-02
RMM:   4    -0.225157775649E+03   -0.55907E-06   -0.48014E-05  7863   0.172E-02    0.414E-02
RMM:   5    -0.225157770372E+03    0.52773E-05   -0.15476E-05  8360   0.931E-03    0.825E-03
RMM:   6    -0.225157771077E+03   -0.70531E-06   -0.25546E-06 10161   0.294E-03    0.531E-03
RMM:   7    -0.225157771592E+03   -0.51507E-06   -0.68802E-07  8274   0.158E-03    0.170E-03
 num prob  num prob  num prob  num prob  num prob  num prob  num prob RMM:   8    -0.225157771856E+03   -0.26339E-06   -0.15780E-07  4831   0.981E-04    0.501E-04
RMM:   9    -0.225157771943E+03   -0.87308E-07   -0.11745E-07  4856   0.813E-04
  19 F= -.22515777E+03 E0= -.22515550E+03  d E =-.432819E-01  mag=    -0.0000
 curvature:  -0.73 expect dE=-0.376E-01 dE for cont linesearch -0.101E-07
 trial: gam= 0.41725 g(F)=  0.337E-01 g(S)=  0.179E-01 ort =-0.619E-04 (trialstep = 0.649E+00)
 search vector abs. value=  0.995E-01
 bond charge predicted
       N       E                     dE             d eps       ncg     rms          rms(c)
DAV:   1    -0.225159659647E+03   -0.18878E-02   -0.99740E+00  7680   0.850E+00    0.108E+00
RMM:   2    -0.225181477047E+03   -0.21817E-01   -0.25837E-01  7680   0.158E+00    0.659E-01
RMM:   3    -0.225180881305E+03    0.59574E-03   -0.16564E-02  8975   0.359E-01    0.419E-01
RMM:   4    -0.225180469317E+03    0.41199E-03   -0.46318E-03  7750   0.164E-01    0.250E-01
RMM:   5    -0.225180105436E+03    0.36388E-03   -0.11047E-03  8098   0.850E-02    0.729E-02
RMM:   6    -0.225180040466E+03    0.64970E-04   -0.22362E-04  8638   0.311E-02    0.395E-02
RMM:   7    -0.225180035981E+03    0.44848E-05   -0.55136E-05  9255   0.180E-02    0.126E-02
RMM:   8    -0.225180035904E+03    0.77354E-07   -0.13580E-05 12270   0.618E-03    0.535E-03
RMM:   9    -0.225180035885E+03    0.18761E-07   -0.43159E-06 11537   0.357E-03    0.289E-03
 num prob WARNING in EDDRMM: call to ZHEGV failed, returncode =   8  4 10
 num prob  num prob  num prob  num prob  num prob  num prob  num prob  num prob  num prob  num prob  num prob  num prob  num prob  num prob  num prob  num prob WARNING in EDDRMM: call to ZHEGV failed, returncode =   8  4 10
 num prob  num prob  num prob  num prob  num prob  num prob  num prob  num prob  num prob  num prob  num prob  num prob  num prob  num prob RMM:  10    -0.225180035816E+03    0.69202E-07   -0.98597E-07  7211   0.177E-03
  20 F= -.22518004E+03 E0= -.22517798E+03  d E =-.222639E-01  mag=    -0.0000
 trial-energy change:   -0.022264  1 .order   -0.022276   -0.033449   -0.011104
 step:   0.9715(harm=  0.9715)  dis= 0.01714  next Energy=  -225.182807 (dE=-0.250E-01)
 bond charge predicted
       N       E                     dE             d eps       ncg     rms          rms(c)
DAV:   1    -0.225177851114E+03    0.21848E-02   -0.24624E+00  7792   0.422E+00    0.533E-01
RMM:   2    -0.225183198408E+03   -0.53473E-02   -0.63551E-02  7680   0.786E-01    0.326E-01
RMM:   3    -0.225183055886E+03    0.14252E-03   -0.41063E-03  9005   0.178E-01    0.207E-01
RMM:   4    -0.225182950164E+03    0.10572E-03   -0.11319E-03  7761   0.810E-02    0.125E-01
RMM:   5    -0.225182858569E+03    0.91594E-04   -0.27662E-04  8125   0.422E-02    0.359E-02
RMM:   6    -0.225182843053E+03    0.15516E-04   -0.53070E-05  8914   0.150E-02    0.197E-02
RMM:   7    -0.225182841200E+03    0.18537E-05   -0.13787E-05  9411   0.878E-03    0.612E-03
RMM:   8    -0.225182840974E+03    0.22595E-06   -0.34303E-06 11237   0.312E-03    0.257E-03
 num prob  num prob  num prob  num prob  num prob  num prob  num prob  num prob  num prob  num prob RMM:   9    -0.225182840935E+03    0.38173E-07   -0.10088E-06  8799   0.182E-03    0.142E-03
 num prob  num prob  num prob  num prob  num prob  num prob  num prob  num prob  num prob  num prob  num prob  num prob  num prob  num prob  num prob  num prob  num prob  num prob  num prob  num prob RMM:  10    -0.225182840884E+03    0.51608E-07   -0.24816E-07  5276   0.111E-03
  21 F= -.22518284E+03 E0= -.22518094E+03  d E =-.250689E-01  mag=    -0.0000
 curvature:  -0.94 expect dE=-0.261E-01 dE for cont linesearch -0.482E-06
 trial: gam= 0.53534 g(F)=  0.226E-01 g(S)=  0.519E-02 ort = 0.226E-03 (trialstep = 0.713E+00)
 search vector abs. value=  0.566E-01
 bond charge predicted
[...]
 num prob  num prob  num prob  num prob  num prob  num prob  num prob  num prob  num prob  num prob  num prob  num prob  num prob  num prob  num prob  num prob  num prob  num prob  num prob  num prob  num prob  num prob  num prob  num prob  num prob  num prob  num prob  num prob  num prob  num prob  num prob  num prob  num prob  num prob  num prob  num prob  num prob  num prob RMM:  13    -0.225338779684E+03   -0.17764E-07   -0.31487E-07  5881   0.125E-03
  41 F= -.22533878E+03 E0= -.22533866E+03  d E =-.957683E-02  mag=     0.0000
 trial-energy change:   -0.009577  1 .order   -0.009601   -0.017850   -0.001352
 step:   0.5439(harm=  0.5439)  dis= 0.01190  next Energy=  -225.338859 (dE=-0.966E-02)
 bond charge predicted
       N       E                     dE             d eps       ncg     rms          rms(c)
DAV:   1    -0.225338664792E+03    0.11487E-03   -0.10635E-01  8064   0.913E-01    0.992E-02
RMM:   2    -0.225338850513E+03   -0.18572E-03   -0.27173E-03  7680   0.158E-01    0.635E-02
RMM:   3    -0.225338837640E+03    0.12873E-04   -0.15759E-04  8523   0.392E-02    0.363E-02
RMM:   4    -0.225338834528E+03    0.31128E-05   -0.43904E-05  8061   0.163E-02    0.211E-02
RMM:   5    -0.225338832344E+03    0.21840E-05   -0.88665E-06  8793   0.746E-03    0.701E-03
RMM:   6    -0.225338832799E+03   -0.45519E-06   -0.17622E-06  9956   0.244E-03    0.388E-03
RMM:   7    -0.225338833172E+03   -0.37339E-06   -0.56699E-07  7083   0.160E-03    0.148E-03
 num prob  num prob  num prob  num prob  num prob  num prob  num prob  num prob  num prob  num prob  num prob RMM:   8    -0.225338833362E+03   -0.18927E-06   -0.17848E-07  5013   0.106E-03    0.678E-04
RMM:   9    -0.225338833391E+03   -0.29075E-07   -0.11646E-07  5126   0.768E-04
  42 F= -.22533883E+03 E0= -.22533874E+03  d E =-.963054E-02  mag=    -0.0000
 curvature:  -2.10 expect dE=-0.311E-01 dE for cont linesearch -0.597E-09
 trial: gam= 0.27445 g(F)=  0.824E-02 g(S)=  0.654E-02 ort =-0.883E-05 (trialstep = 0.511E+00)
 search vector abs. value=  0.355E-01
 bond charge predicted
       N       E                     dE             d eps       ncg     rms          rms(c)
DAV:   1    -0.225343837330E+03   -0.50040E-02   -0.18987E+00  7792   0.373E+00    0.557E-01
RMM:   2    -0.225344947755E+03   -0.11104E-02   -0.50305E-02  7682   0.684E-01    0.309E-01
RMM:   3    -0.225344133374E+03    0.81438E-03   -0.41728E-03  8322   0.184E-01    0.175E-01
RMM:   4    -0.225343871108E+03    0.26227E-03   -0.10239E-03  8040   0.774E-02    0.941E-02
RMM:   5    -0.225343799770E+03    0.71338E-04   -0.26770E-04  8798   0.381E-02    0.381E-02
RMM:   6    -0.225343792963E+03    0.68066E-05   -0.50801E-05 10911   0.147E-02    0.180E-02
RMM:   7    -0.225343791792E+03    0.11713E-05   -0.13337E-05 11350   0.688E-03    0.698E-03
RMM:   8    -0.225343791406E+03    0.38566E-06   -0.40495E-06 11540   0.324E-03    0.276E-03
 num prob  num prob  num prob  num prob  num prob  num prob  num prob  num prob  num prob  num prob  num prob  num prob  num prob  num prob  num prob  num prob  num prob  num prob  num prob  num prob  num prob  num prob  num prob  num prob  num prob  num prob  num prob  num prob  num prob  num prob  num prob  num prob  num prob  num prob RMM:   9    -0.225343791274E+03    0.13181E-06   -0.83130E-07  7024   0.176E-03    0.169E-03
 num prob  num prob  num prob  num prob  num prob  num prob RMM:  10    -0.225343791080E+03    0.19416E-06   -0.82980E-07  6842   0.156E-03    0.587E-04
 num prob  num prob  num prob  num prob  num prob  num prob  num prob  num prob  num prob  num prob  num prob  num prob  num prob  num prob  num prob  num prob  num prob  num prob  num prob  num prob  num prob  num prob  num prob  num prob  num prob  num prob  num prob  num prob  num prob  num prob  num prob  num prob  num prob  num prob  num prob  num prob RMM:  11    -0.225343791087E+03   -0.73160E-08   -0.12235E-07  5384   0.112E-03
  43 F= -.22534379E+03 E0= -.22534382E+03  d E =-.495770E-02  mag=    -0.0000
 trial-energy change:   -0.004958  1 .order   -0.004960   -0.007551   -0.002368
 step:   0.7444(harm=  0.7444)  dis= 0.00624  next Energy=  -225.344334 (dE=-0.550E-02)
 bond charge predicted
       N       E                     dE             d eps       ncg     rms          rms(c)
DAV:   1    -0.225344345819E+03   -0.55474E-03   -0.39636E-01  7904   0.170E+00    0.254E-01
RMM:   2    -0.225344577391E+03   -0.23157E-03   -0.10518E-02  7682   0.313E-01    0.140E-01
RMM:   3    -0.225344408785E+03    0.16861E-03   -0.87692E-04  8361   0.838E-02    0.801E-02
RMM:   4    -0.225344352709E+03    0.56076E-04   -0.21321E-04  8058   0.352E-02    0.428E-02
RMM:   5    -0.225344336927E+03    0.15781E-04   -0.56762E-05  8857   0.175E-02    0.175E-02
RMM:   6    -0.225344334841E+03    0.20861E-05   -0.10953E-05 10847   0.677E-03    0.824E-03
RMM:   7    -0.225344334202E+03    0.63895E-06   -0.29713E-06 10932   0.320E-03    0.322E-03
 num prob  num prob  num prob  num prob  num prob  num prob  num prob  num prob  num prob  num prob  num prob  num prob  num prob  num prob  num prob  num prob  num prob  num prob  num prob  num prob  num prob  num prob  num prob  num prob  num prob  num prob RMM:   8    -0.225344333886E+03    0.31625E-06   -0.50887E-07  6928   0.154E-03    0.142E-03
 num prob  num prob  num prob  num prob  num prob  num prob  num prob  num prob  num prob  num prob  num prob  num prob  num prob  num prob  num prob  num prob  num prob  num prob RMM:   9    -0.225344333811E+03    0.75219E-07   -0.39111E-07  5634   0.118E-03
  44 F= -.22534433E+03 E0= -.22534442E+03  d E =-.550042E-02  mag=    -0.0000
 curvature:  -0.89 expect dE=-0.578E-02 dE for cont linesearch -0.167E-07
 trial: gam= 0.46455 g(F)=  0.583E-02 g(S)=  0.640E-03 ort = 0.258E-04 (trialstep = 0.558E+00)
 search vector abs. value=  0.141E-01
 bond charge predicted
       N       E                     dE             d eps       ncg     rms          rms(c)
DAV:   1    -0.225346223425E+03   -0.18895E-02   -0.91916E-01  7680   0.270E+00    0.319E-01
RMM:   2    -0.225347294870E+03   -0.10714E-02   -0.23873E-02  7680   0.473E-01    0.194E-01
RMM:   3    -0.225347085461E+03    0.20941E-03   -0.15949E-03  8858   0.117E-01    0.124E-01
RMM:   4    -0.225346975898E+03    0.10956E-03   -0.39422E-04  8328   0.483E-02    0.823E-02
RMM:   5    -0.225346928402E+03    0.47496E-04   -0.12480E-04  8671   0.265E-02    0.147E-02
RMM:   6    -0.225346929609E+03   -0.12075E-05   -0.20661E-05 11339   0.855E-03    0.872E-03
WARNING in EDDRMM: call to ZHEGV failed, returncode =   6  3 12
RMM:   7    -0.225346930113E+03   -0.50334E-06   -0.52757E-06 11374   0.379E-03    0.342E-03
 num prob  num prob  num prob  num prob  num prob  num prob RMM:   8    -0.225346930437E+03   -0.32447E-06   -0.18443E-06  9366   0.216E-03    0.112E-03
 num prob  num prob  num prob  num prob  num prob  num prob  num prob  num prob  num prob  num prob  num prob  num prob  num prob  num prob  num prob  num prob  num prob  num prob  num prob  num prob  num prob  num prob  num prob  num prob  num prob  num prob  num prob  num prob  num prob  num prob  num prob  num prob RMM:   9    -0.225346930493E+03   -0.56247E-07   -0.55967E-07  6202   0.146E-03
  45 F= -.22534693E+03 E0= -.22534684E+03  d E =-.259668E-02  mag=     0.0000
 trial-energy change:   -0.002597  1 .order   -0.002604   -0.003617   -0.001592
 step:   1.0151(harm=  0.9961)  dis= 0.00742  next Energy=  -225.347579 (dE=-0.325E-02)
 bond charge predicted
       N       E                     dE             d eps       ncg     rms          rms(c)
DAV:   1    -0.225347077021E+03   -0.14658E-03   -0.61864E-01  7680   0.221E+00    0.261E-01
RMM:   2    -0.225347797922E+03   -0.72090E-03   -0.16073E-02  7680   0.388E-01    0.159E-01
RMM:   3    -0.225347657355E+03    0.14057E-03   -0.10770E-03  8874   0.962E-02    0.102E-01
RMM:   4    -0.225347583865E+03    0.73490E-04   -0.26693E-04  8360   0.397E-02    0.677E-02
RMM:   5    -0.225347552143E+03    0.31722E-04   -0.85143E-05  8692   0.218E-02    0.120E-02
RMM:   6    -0.225347552992E+03   -0.84973E-06   -0.14247E-05 11282   0.705E-03    0.715E-03
WARNING in EDDRMM: call to ZHEGV failed, returncode =   6  3 12
RMM:   7    -0.225347553380E+03   -0.38815E-06   -0.37464E-06 11109   0.316E-03    0.281E-03
 num prob  num prob  num prob  num prob  num prob  num prob  num prob  num prob  num prob  num prob  num prob  num prob  num prob  num prob RMM:   8    -0.225347553607E+03   -0.22689E-06   -0.11621E-06  7975   0.182E-03    0.869E-04
 num prob  num prob  num prob  num prob  num prob  num prob  num prob  num prob  num prob  num prob  num prob  num prob  num prob  num prob  num prob  num prob  num prob  num prob RMM:   9    -0.225347553642E+03   -0.34637E-07   -0.41243E-07  5832   0.134E-03
  46 F= -.22534755E+03 E0= -.22534733E+03  d E =-.321983E-02  mag=    -0.0000
 curvature:  -1.08 expect dE=-0.438E-02 dE for cont linesearch -0.141E-05
 trial: gam= 0.65063 g(F)=  0.326E-02 g(S)=  0.779E-03 ort =-0.136E-03 (trialstep = 0.649E+00)
 search vector abs. value=  0.985E-02
 bond charge predicted
       N       E                     dE             d eps       ncg     rms          rms(c)
DAV:   1    -0.225347448320E+03    0.10529E-03   -0.89587E-01  7680   0.265E+00    0.272E-01
RMM:   2    -0.225349231762E+03   -0.17834E-02   -0.22106E-02  7680   0.451E-01    0.132E-01
RMM:   3    -0.225349231071E+03    0.69071E-06   -0.12430E-03  8902   0.106E-01    0.971E-02
RMM:   4    -0.225349205703E+03    0.25368E-04   -0.26860E-04  9368   0.367E-02    0.270E-02
RMM:   5    -0.225349208447E+03   -0.27441E-05   -0.52884E-05 10555   0.167E-02    0.162E-02
RMM:   6    -0.225349207875E+03    0.57202E-06   -0.15072E-05 12217   0.707E-03    0.742E-03
RMM:   7    -0.225349207417E+03    0.45793E-06   -0.67401E-06 11705   0.458E-03    0.516E-03
WARNING in EDDRMM: call to ZHEGV failed, returncode =   6  3 16
WARNING in EDDRMM: call to ZHEGV failed, returncode =   6  3 16
WARNING in EDDRMM: call to ZHEGV failed, returncode =   6  3  9
RMM:   8    -0.225349207166E+03    0.25100E-06   -0.27416E-06 10739   0.274E-03    0.163E-03
 num prob  num prob  num prob  num prob  num prob  num prob  num prob  num prob  num prob  num prob  num prob  num prob  num prob  num prob  num prob  num prob  num prob  num prob  num prob  num prob  num prob  num prob  num prob  num prob  num prob  num prob  num prob  num prob  num prob  num prob  num prob  num prob  num prob  num prob  num prob  num prob  num prob  num prob  num prob  num prob  num prob  num prob  num prob  num prob  num prob  num prob  num prob  num prob  num prob  num prob  num prob  num prob  num prob  num prob RMM:   9    -0.225349207042E+03    0.12436E-06   -0.58169E-07  6649   0.165E-03    0.942E-04
 num prob  num prob  num prob  num prob  num prob  num prob  num prob  num prob  num prob  num prob  num prob  num prob RMM:  10    -0.225349207080E+03   -0.38424E-07   -0.83309E-07  7338   0.147E-03
  47 F= -.22534921E+03 E0= -.22534889E+03  d E =-.165344E-02  mag=     0.0000
 trial-energy change:   -0.001653  1 .order   -0.001656   -0.002566   -0.000746
 step:   0.9154(harm=  0.9154)  dis= 0.00455  next Energy=  -225.349363 (dE=-0.181E-02)
 bond charge predicted
       N       E                     dE             d eps       ncg     rms          rms(c)
DAV:   1    -0.225349065906E+03    0.14114E-03   -0.15071E-01  7920   0.109E+00    0.112E-01
RMM:   2    -0.225349366516E+03   -0.30061E-03   -0.37283E-03  7680   0.185E-01    0.542E-02
RMM:   3    -0.225349366595E+03   -0.78915E-07   -0.21061E-04  8941   0.435E-02    0.400E-02
RMM:   4    -0.225349362141E+03    0.44533E-05   -0.45610E-05  9477   0.150E-02    0.111E-02
RMM:   5    -0.225349362420E+03   -0.27856E-06   -0.93665E-06 10476   0.695E-03    0.683E-03
RMM:   6    -0.225349362149E+03    0.27065E-06   -0.27327E-06 10776   0.297E-03    0.311E-03
RMM:   7    -0.225349361931E+03    0.21790E-06   -0.12005E-06  9224   0.199E-03    0.188E-03
 num prob  num prob  num prob  num prob  num prob  num prob  num prob  num prob RMM:   8    -0.225349361781E+03    0.15045E-06   -0.42836E-07  6281   0.134E-03    0.895E-04
RMM:   9    -0.225349361739E+03    0.42011E-07   -0.28009E-07  5667   0.108E-03
  48 F= -.22534936E+03 E0= -.22534900E+03  d E =-.180810E-02  mag=    -0.0000
 curvature:  -1.14 expect dE=-0.157E-02 dE for cont linesearch -0.672E-10
 trial: gam= 0.30951 g(F)=  0.104E-02 g(S)=  0.334E-03 ort =-0.762E-06 (trialstep = 0.702E+00)
 search vector abs. value=  0.232E-02
 bond charge predicted
       N       E                     dE             d eps       ncg     rms          rms(c)
DAV:   1    -0.225349660910E+03   -0.29913E-03   -0.21470E-01  7680   0.128E+00    0.160E-01
RMM:   2    -0.225349990244E+03   -0.32933E-03   -0.59089E-03  7680   0.243E-01    0.902E-02
RMM:   3    -0.225349942147E+03    0.48097E-04   -0.41561E-04  8620   0.576E-02    0.553E-02
RMM:   4    -0.225349919401E+03    0.22746E-04   -0.96388E-05  8233   0.230E-02    0.172E-02
RMM:   5    -0.225349919019E+03    0.38183E-06   -0.16095E-05  9529   0.101E-02    0.104E-02
RMM:   6    -0.225349918102E+03    0.91760E-06   -0.46495E-06 11001   0.408E-03    0.513E-03
RMM:   7    -0.225349917730E+03    0.37226E-06   -0.16480E-06 10042   0.234E-03    0.173E-03
 num prob  num prob  num prob  num prob  num prob  num prob  num prob  num prob  num prob  num prob  num prob  num prob  num prob  num prob RMM:   8    -0.225349917663E+03    0.66626E-07   -0.45401E-07  5953   0.122E-03
  49 F= -.22534992E+03 E0= -.22534965E+03  d E =-.555924E-03  mag=    -0.0000
 trial-energy change:   -0.000556  1 .order   -0.000552   -0.000966   -0.000139
 step:   0.8166(harm=  0.8202)  dis= 0.00204  next Energy=  -225.349929 (dE=-0.567E-03)
 bond charge predicted
       N       E                     dE             d eps       ncg     rms          rms(c)
DAV:   1    -0.225349922664E+03   -0.49347E-05   -0.56788E-03  8064   0.208E-01    0.261E-02
RMM:   2    -0.225349931825E+03   -0.91611E-05   -0.15828E-04  7680   0.396E-02    0.147E-02
RMM:   3    -0.225349930699E+03    0.11265E-05   -0.11454E-05  8852   0.942E-03    0.905E-03
RMM:   4    -0.225349930051E+03    0.64772E-06   -0.26991E-06  8530   0.373E-03    0.288E-03
RMM:   5    -0.225349929938E+03    0.11320E-06   -0.43784E-07  6238   0.171E-03    0.184E-03
RMM:   6    -0.225349929871E+03    0.66477E-07   -0.14987E-07  4960   0.106E-03
  50 F= -.22534993E+03 E0= -.22534967E+03  d E =-.568133E-03  mag=    -0.0000
 curvature:  -0.69 expect dE=-0.271E-03 dE for cont linesearch -0.571E-08
 trial: gam= 0.28776 g(F)=  0.209E-03 g(S)=  0.184E-03 ort = 0.438E-05 (trialstep = 0.725E+00)
 search vector abs. value=  0.587E-03
 bond charge predicted
       N       E                     dE             d eps       ncg     rms          rms(c)
DAV:   1    -0.225350182595E+03   -0.25266E-03   -0.54688E-02  7744   0.667E-01    0.109E-01
RMM:   2    -0.225350170645E+03    0.11950E-04   -0.16458E-03  7680   0.123E-01    0.554E-02
RMM:   3    -0.225350136954E+03    0.33691E-04   -0.14305E-04  7894   0.359E-02    0.345E-02
RMM:   4    -0.225350127100E+03    0.98535E-05   -0.37779E-05  8124   0.151E-02    0.211E-02
RMM:   5    -0.225350123344E+03    0.37563E-05   -0.88058E-06  9683   0.647E-03    0.765E-03
RMM:   6    -0.225350122657E+03    0.68670E-06   -0.23005E-06 10595   0.311E-03    0.321E-03
RMM:   7    -0.225350122453E+03    0.20390E-06   -0.47201E-07  6280   0.134E-03    0.191E-03
 num prob  num prob  num prob  num prob RMM:   8    -0.225350122260E+03    0.19309E-06   -0.17433E-07  5088   0.101E-03    0.664E-04
RMM:   9    -0.225350122226E+03    0.34353E-07   -0.92133E-08  4774   0.739E-04
  51 F= -.22535012E+03 E0= -.22534986E+03  d E =-.192354E-03  mag=    -0.0000
 trial-energy change:   -0.000192  1 .order   -0.000189   -0.000286   -0.000093
 step:   1.0378(harm=  1.0777)  dis= 0.00114  next Energy=  -225.350143 (dE=-0.213E-03)
 bond charge predicted
       N       E                     dE             d eps       ncg     rms          rms(c)
DAV:   1    -0.225350157130E+03   -0.34870E-04   -0.10153E-02  7824   0.287E-01    0.471E-02
RMM:   2    -0.225350155254E+03    0.18757E-05   -0.30609E-04  7680   0.532E-02    0.239E-02
RMM:   3    -0.225350149088E+03    0.61666E-05   -0.26823E-05  7906   0.155E-02    0.149E-02
RMM:   4    -0.225350147152E+03    0.19358E-05   -0.71727E-06  8180   0.650E-03    0.913E-03
RMM:   5    -0.225350146268E+03    0.88383E-06   -0.16860E-06  9246   0.279E-03    0.330E-03
RMM:   6    -0.225350145976E+03    0.29155E-06   -0.37012E-07  5648   0.138E-03    0.150E-03
RMM:   7    -0.225350145911E+03    0.65225E-07   -0.10267E-07  4720   0.966E-04
  52 F= -.22535015E+03 E0= -.22534987E+03  d E =-.216040E-03  mag=    -0.0000
 curvature:  -0.79 expect dE=-0.229E-03 dE for cont linesearch -0.278E-06
 trial: gam= 0.70399 g(F)=  0.231E-03 g(S)=  0.575E-04 ort = 0.143E-04 (trialstep = 0.771E+00)
 search vector abs. value=  0.600E-03
 bond charge predicted
       N       E                     dE             d eps       ncg     rms          rms(c)
DAV:   1    -0.225350143793E+03    0.21834E-05   -0.76293E-02  7680   0.778E-01    0.823E-02
RMM:   2    -0.225350294425E+03   -0.15063E-03   -0.20718E-03  7680   0.141E-01    0.476E-02
RMM:   3    -0.225350287646E+03    0.67786E-05   -0.12062E-04  8592   0.335E-02    0.348E-02
RMM:   4    -0.225350282291E+03    0.53556E-05   -0.21070E-05  8866   0.103E-02    0.227E-02
RMM:   5    -0.225350279561E+03    0.27294E-05   -0.10312E-05  8450   0.752E-03    0.370E-03
RMM:   6    -0.225350279480E+03    0.80905E-07   -0.16763E-06  9481   0.289E-03    0.234E-03
RMM:   7    -0.225350279380E+03    0.10060E-06   -0.37421E-07  5704   0.117E-03    0.170E-03
RMM:   8    -0.225350279283E+03    0.96461E-07   -0.24110E-07  5340   0.998E-04
  53 F= -.22535028E+03 E0= -.22535002E+03  d E =-.133372E-03  mag=    -0.0000
 trial-energy change:   -0.000133  1 .order   -0.000137   -0.000230   -0.000044
 step:   0.9901(harm=  0.9545)  dis= 0.00165  next Energy=  -225.350285 (dE=-0.140E-03)
 bond charge predicted
       N       E                     dE             d eps       ncg     rms          rms(c)
DAV:   1    -0.225350273656E+03    0.57239E-05   -0.61536E-03  8032   0.221E-01    0.233E-02
RMM:   2    -0.225350286075E+03   -0.12419E-04   -0.16803E-04  7680   0.400E-02    0.135E-02
RMM:   3    -0.225350285620E+03    0.45516E-06   -0.10012E-05  8728   0.954E-03    0.989E-03
RMM:   4    -0.225350285202E+03    0.41750E-06   -0.18374E-06  8800   0.296E-03    0.646E-03
RMM:   5    -0.225350284943E+03    0.25886E-06   -0.87397E-07  7869   0.217E-03    0.110E-03
RMM:   6    -0.225350284913E+03    0.30359E-07   -0.11717E-07  4836   0.901E-04
  54 F= -.22535028E+03 E0= -.22535003E+03  d E =-.139002E-03  mag=     0.0000
 curvature:  -0.92 expect dE=-0.148E-03 dE for cont linesearch -0.187E-06
 trial: gam= 0.65276 g(F)=  0.126E-03 g(S)=  0.349E-04 ort =-0.110E-04 (trialstep = 0.815E+00)
 search vector abs. value=  0.402E-03
 bond charge predicted
       N       E                     dE             d eps       ncg     rms          rms(c)
DAV:   1    -0.225350242448E+03    0.42495E-04   -0.58512E-02  7680   0.641E-01    0.747E-02
RMM:   2    -0.225350357588E+03   -0.11514E-03   -0.13739E-03  7680   0.115E-01    0.404E-02
RMM:   3    -0.225350357223E+03    0.36581E-06   -0.88308E-05  8658   0.263E-02    0.254E-02
RMM:   4    -0.225350354479E+03    0.27437E-05   -0.18527E-05  8166   0.102E-02    0.514E-03
RMM:   5    -0.225350354594E+03   -0.11469E-06   -0.24448E-06  8926   0.397E-03    0.264E-03
RMM:   6    -0.225350354602E+03   -0.81091E-08   -0.56135E-07  6523   0.143E-03
  55 F= -.22535035E+03 E0= -.22535008E+03  d E =-.696889E-04  mag=    -0.0000
 trial-energy change:   -0.000070  1 .order   -0.000069   -0.000125   -0.000013
 step:   0.9007(harm=  0.9054)  dis= 0.00109  next Energy=  -225.350355 (dE=-0.703E-04)
 reached required accuracy - stopping structural energy minimisation
