unknown system                          
           1
    15.320298    0.000000   -1.144776
     0.000000    3.697397    0.000000
    -0.335726    0.000000   11.030043
   Sr   Ir   O 
   4  10  20
Direct configuration=     1
   0.24660000  0.00000000  0.12420000
   0.74660000  0.50000000  0.12420000
   0.75340000  0.00000000  0.87580000
   0.25340000  0.50000000  0.87580000
   0.00000000  0.50000000  0.00000000
   0.50000000  0.00000000  0.00000000
   0.99978000  0.00000000  0.26820000
   0.49978000  0.50000000  0.26820000
   0.00022000  0.00000000  0.73180000
   0.50022000  0.50000000  0.73180000
   0.34010000  0.00000000  0.48410000
   0.84010000  0.50000000  0.48410000
   0.65990000  0.00000000  0.51590000
   0.15990000  0.50000000  0.51590000
   0.56690000  0.00000000  0.17730000
   0.06690000  0.50000000  0.17730000
   0.43310000  0.00000000  0.82270000
   0.93310000  0.50000000  0.82270000
   0.09760000  0.00000000  0.42440000
   0.59760000  0.50000000  0.42440000
   0.90240000  0.00000000  0.57560000
   0.40240000  0.50000000  0.57560000
   0.76630000  0.00000000  0.39580000
   0.26630000  0.50000000  0.39580000
   0.23370000  0.00000000  0.60420000
   0.73370000  0.50000000  0.60420000
   0.42480000  0.00000000  0.33540000
   0.92480000  0.50000000  0.33540000
   0.57520000  0.00000000  0.66460000
   0.07520000  0.50000000  0.66460000
   0.92630000  0.00000000  0.07210000
   0.42630000  0.50000000  0.07210000
   0.07370000  0.00000000  0.92790000
   0.57370000  0.50000000  0.92790000
unknown system                          
           1
    14.376449    0.000000   -0.765519
     0.000000    3.124733    0.000000
    -0.109938    0.000000   10.120743
   Sr   Ir   O 
   4  10  20
Direct configuration=     2
   0.24590495  0.00000000  0.14398272
   0.74590495  0.50000000  0.14398272
   0.75409505 -0.00000000  0.85601728
   0.25409505  0.50000000  0.85601728
   0.00000000  0.50000000  0.00000000
   0.50000000  0.00000000  0.00000000
   0.00188361  0.00000000  0.27447261
   0.50188361  0.50000000  0.27447261
  -0.00188361 -0.00000000  0.72552739
   0.49811639  0.50000000  0.72552739
   0.34799859  0.00000000  0.47985473
   0.84799859  0.50000000  0.47985473
   0.65200141 -0.00000000  0.52014527
   0.15200141  0.50000000  0.52014527
   0.58420249 -0.00000000  0.17905519
   0.08420249  0.50000000  0.17905519
   0.41579751  0.00000000  0.82094481
   0.91579751  0.50000000  0.82094481
   0.08783592  0.00000000  0.40996631
   0.58783592  0.50000000  0.40996631
   0.91216408  0.00000000  0.59003369
   0.41216408  0.50000000  0.59003369
   0.76341145  0.00000000  0.37039702
   0.26341145  0.50000000  0.37039702
   0.23658855  0.00000000  0.62960298
   0.73658855  0.50000000  0.62960298
   0.41923351  0.00000000  0.33688444
   0.91923351  0.50000000  0.33688444
   0.58076649  0.00000000  0.66311556
   0.08076649  0.50000000  0.66311556
   0.90854555  0.00000000  0.08602919
   0.40854555  0.50000000  0.08602919
   0.09145445  0.00000000  0.91397081
   0.59145445  0.50000000  0.91397081
unknown system                          
           1
    14.310659    0.000000   -0.739084
     0.000000    3.084817    0.000000
    -0.094200    0.000000   10.057362
   Sr   Ir   O 
   4  10  20
Direct configuration=     3
   0.24607360  0.00000000  0.13230184
   0.74607360  0.50000000  0.13230184
   0.75392640 -0.00000000  0.86769816
   0.25392640  0.50000000  0.86769816
  -0.00000000  0.50000000  0.00000000
   0.50000000  0.00000000  0.00000000
   0.00051586  0.00000000  0.27070370
   0.50051586  0.50000000  0.27070370
  -0.00051586 -0.00000000  0.72929630
   0.49948414  0.50000000  0.72929630
   0.34322327  0.00000000  0.48214399
   0.84322327  0.50000000  0.48214399
   0.65677673 -0.00000000  0.51785601
   0.15677673  0.50000000  0.51785601
   0.57359850 -0.00000000  0.17753170
   0.07359850  0.50000000  0.17753170
   0.42640150  0.00000000  0.82246830
   0.92640150  0.50000000  0.82246830
   0.09399416  0.00000000  0.41877695
   0.59399416  0.50000000  0.41877695
   0.90600584  0.00000000  0.58122305
   0.40600584  0.50000000  0.58122305
   0.76550717  0.00000000  0.38550250
   0.26550717  0.50000000  0.38550250
   0.23449283  0.00000000  0.61449750
   0.73449283  0.50000000  0.61449750
   0.42261843  0.00000000  0.33616264
   0.92261843  0.50000000  0.33616264
   0.57738157  0.00000000  0.66383736
   0.07738157  0.50000000  0.66383736
   0.91922265  0.00000000  0.07828893
   0.41922265  0.50000000  0.07828893
   0.08077735  0.00000000  0.92171107
   0.58077735  0.50000000  0.92171107
unknown system                          
           1
    14.285719    0.000000   -0.729062
     0.000000    3.069685    0.000000
    -0.088233    0.000000   10.033335
   Sr   Ir   O 
   4  10  20
Direct configuration=     4
   0.24609836  0.00000000  0.13141504
   0.74609836  0.50000000  0.13141504
   0.75390164 -0.00000000  0.86858496
   0.25390164  0.50000000  0.86858496
  -0.00000000  0.50000000  0.00000000
   0.50000000  0.00000000  0.00000000
   0.00041824  0.00000000  0.27042079
   0.50041824  0.50000000  0.27042079
  -0.00041824 -0.00000000  0.72957921
   0.49958176  0.50000000  0.72957921
   0.34286625  0.00000000  0.48232854
   0.84286625  0.50000000  0.48232854
   0.65713375 -0.00000000  0.51767146
   0.15713375  0.50000000  0.51767146
   0.57281262 -0.00000000  0.17744012
   0.07281262  0.50000000  0.17744012
   0.42718738  0.00000000  0.82255988
   0.92718738  0.50000000  0.82255988
   0.09444226  0.00000000  0.41943160
   0.59444226  0.50000000  0.41943160
   0.90555774  0.00000000  0.58056840
   0.40555774  0.50000000  0.58056840
   0.76564698  0.00000000  0.38664405
   0.26564698  0.50000000  0.38664405
   0.23435302  0.00000000  0.61335595
   0.73435302  0.50000000  0.61335595
   0.42287055  0.00000000  0.33610019
   0.92287055  0.50000000  0.33610019
   0.57712945  0.00000000  0.66389981
   0.07712945  0.50000000  0.66389981
   0.92002366  0.00000000  0.07767734
   0.42002366  0.50000000  0.07767734
   0.07997634  0.00000000  0.92232266
   0.57997634  0.50000000  0.92232266
unknown system                          
           1
    13.587286    0.000000   -0.811567
     0.000000    3.143821    0.000000
    -0.146145    0.000000    9.949477
   Sr   Ir   O 
   4  10  20
Direct configuration=     5
   0.24610815  0.00000000  0.13107675
   0.74610815  0.50000000  0.13107675
   0.75389185 -0.00000000  0.86892325
   0.25389185  0.50000000  0.86892325
  -0.00000000  0.50000000  0.00000000
   0.50000000  0.00000000  0.00000000
   0.00038117  0.00000000  0.27031296
   0.50038117  0.50000000  0.27031296
  -0.00038117 -0.00000000  0.72968704
   0.49961883  0.50000000  0.72968704
   0.34273021  0.00000000  0.48239924
   0.84273021  0.50000000  0.48239924
   0.65726979 -0.00000000  0.51760076
   0.15726979  0.50000000  0.51760076
   0.57251337 -0.00000000  0.17740588
   0.07251337  0.50000000  0.17740588
   0.42748663  0.00000000  0.82259412
   0.92748663  0.50000000  0.82259412
   0.09461264  0.00000000  0.41968093
   0.59461264  0.50000000  0.41968093
   0.90538736  0.00000000  0.58031907
   0.40538736  0.50000000  0.58031907
   0.76569976  0.00000000  0.38707938
   0.26569976  0.50000000  0.38707938
   0.23430024  0.00000000  0.61292062
   0.73430024  0.50000000  0.61292062
   0.42296660  0.00000000  0.33607615
   0.92296660  0.50000000  0.33607615
   0.57703340  0.00000000  0.66392385
   0.07703340  0.50000000  0.66392385
   0.92032896  0.00000000  0.07744335
   0.42032896  0.50000000  0.07744335
   0.07967104  0.00000000  0.92255665
   0.57967104  0.50000000  0.92255665
unknown system                          
           1
    12.782630    0.000000   -0.906619
     0.000000    3.229232    0.000000
    -0.212864    0.000000    9.852864
   Sr   Ir   O 
   4  10  20
Direct configuration=     6
   0.24551821  0.00000000  0.14510910
   0.74551821  0.50000000  0.14510910
   0.75448179 -0.00000000  0.85489090
   0.25448179  0.50000000  0.85489090
   0.00000000  0.50000000  0.00000000
   0.50000000  0.00000000  0.00000000
   0.00041698  0.00000000  0.26910877
   0.50041698  0.50000000  0.26910877
  -0.00041698 -0.00000000  0.73089123
   0.49958302  0.50000000  0.73089123
   0.34178616  0.00000000  0.48652100
   0.84178616  0.50000000  0.48652100
   0.65821384  0.00000000  0.51347900
   0.15821384  0.50000000  0.51347900
   0.57582380 -0.00000000  0.18138700
   0.07582380  0.50000000  0.18138700
   0.42417620 -0.00000000  0.81861300
   0.92417620  0.50000000  0.81861300
   0.09476556  0.00000000  0.42069515
   0.59476556  0.50000000  0.42069515
   0.90523444  0.00000000  0.57930485
   0.40523444  0.50000000  0.57930485
   0.76565162 -0.00000000  0.38314459
   0.26565162  0.50000000  0.38314459
   0.23434838  0.00000000  0.61685541
   0.73434838  0.50000000  0.61685541
   0.42520575  0.00000000  0.33152705
   0.92520575  0.50000000  0.33152705
   0.57479425  0.00000000  0.66847295
   0.07479425  0.50000000  0.66847295
   0.91753076  0.00000000  0.07957959
   0.41753076  0.50000000  0.07957959
   0.08246924 -0.00000000  0.92042041
   0.58246924  0.50000000  0.92042041
unknown system                          
           1
    12.505634    0.000000   -0.896975
     0.000000    3.258271    0.000000
    -0.196303    0.000000    9.916515
   Sr   Ir   O 
   4  10  20
Direct configuration=     7
   0.24487395  0.00000000  0.16140912
   0.74487395  0.50000000  0.16140912
   0.75512605 -0.00000000  0.83859088
   0.25512605  0.50000000  0.83859088
   0.00000000  0.50000000  0.00000000
   0.50000000  0.00000000  0.00000000
   0.00045432  0.00000000  0.26770977
   0.50045432  0.50000000  0.26770977
  -0.00045432 -0.00000000  0.73229023
   0.49954568  0.50000000  0.73229023
   0.34066316  0.00000000  0.49129776
   0.84066316  0.50000000  0.49129776
   0.65933684  0.00000000  0.50870224
   0.15933684  0.50000000  0.50870224
   0.57985424 -0.00000000  0.18606156
   0.07985424  0.50000000  0.18606156
   0.42014576 -0.00000000  0.81393844
   0.92014576  0.50000000  0.81393844
   0.09495590  0.00000000  0.42187610
   0.59495590  0.50000000  0.42187610
   0.90504410  0.00000000  0.57812390
   0.40504410  0.50000000  0.57812390
   0.76557354 -0.00000000  0.37857087
   0.26557354  0.50000000  0.37857087
   0.23442646  0.00000000  0.62142913
   0.73442646  0.50000000  0.62142913
   0.42789557  0.00000000  0.32627229
   0.92789557  0.50000000  0.32627229
   0.57210443  0.00000000  0.67372771
   0.07210443  0.50000000  0.67372771
   0.91415156  0.00000000  0.08202207
   0.41415156  0.50000000  0.08202207
   0.08584844 -0.00000000  0.91797793
   0.58584844  0.50000000  0.91797793
unknown system                          
           1
    12.283202    0.000000   -0.889230
     0.000000    3.281590    0.000000
    -0.183004    0.000000    9.967627
   Sr   Ir   O 
   4  10  20
Direct configuration=     8
   0.24457261  0.00000000  0.17153498
   0.74457261  0.50000000  0.17153498
   0.75542739 -0.00000000  0.82846502
   0.25542739  0.50000000  0.82846502
   0.00000000  0.50000000  0.00000000
   0.50000000  0.00000000  0.00000000
   0.00113747  0.00000000  0.26454869
   0.50113747  0.50000000  0.26454869
  -0.00113747 -0.00000000  0.73545131
   0.49886253  0.50000000  0.73545131
   0.34177953  0.00000000  0.48858044
   0.84177953  0.50000000  0.48858044
   0.65822047  0.00000000  0.51141956
   0.15822047  0.50000000  0.51141956
   0.58256102 -0.00000000  0.18882488
   0.08256102  0.50000000  0.18882488
   0.41743898 -0.00000000  0.81117512
   0.91743898  0.50000000  0.81117512
   0.09605581 -0.00000000  0.42417376
   0.59605581  0.50000000  0.42417376
   0.90394419  0.00000000  0.57582624
   0.40394419  0.50000000  0.57582624
   0.76684959 -0.00000000  0.37476504
   0.26684959  0.50000000  0.37476504
   0.23315041  0.00000000  0.62523496
   0.73315041  0.50000000  0.62523496
   0.42735717  0.00000000  0.32490998
   0.92735717  0.50000000  0.32490998
   0.57264283  0.00000000  0.67509002
   0.07264283  0.50000000  0.67509002
   0.91171653  0.00000000  0.08143175
   0.41171653  0.50000000  0.08143175
   0.08828347 -0.00000000  0.91856825
   0.58828347  0.50000000  0.91856825
unknown system                          
           1
    12.347907    0.000000   -0.852250
     0.000000    3.241967    0.000000
    -0.149664    0.000000   10.026966
   Sr   Ir   O 
   4  10  20
Direct configuration=     9
   0.24431367  0.00000000  0.17961271
   0.74431367  0.50000000  0.17961271
   0.75568633 -0.00000000  0.82038729
   0.25568633  0.50000000  0.82038729
  -0.00000000  0.50000000  0.00000000
   0.50000000  0.00000000  0.00000000
   0.00170183  0.00000000  0.26202747
   0.50170183  0.50000000  0.26202747
  -0.00170183 -0.00000000  0.73797253
   0.49829817  0.50000000  0.73797253
   0.34269898  0.00000000  0.48641360
   0.84269898  0.50000000  0.48641360
   0.65730102  0.00000000  0.51358640
   0.15730102  0.50000000  0.51358640
   0.58477961 -0.00000000  0.19103158
   0.08477961  0.50000000  0.19103158
   0.41522039 -0.00000000  0.80896842
   0.91522039  0.50000000  0.80896842
   0.09695600 -0.00000000  0.42600766
   0.59695600  0.50000000  0.42600766
   0.90304400  0.00000000  0.57399234
   0.40304400  0.50000000  0.57399234
   0.76790134 -0.00000000  0.37172998
   0.26790134  0.50000000  0.37172998
   0.23209866  0.00000000  0.62827002
   0.73209866  0.50000000  0.62827002
   0.42691681  0.00000000  0.32382273
   0.92691681  0.50000000  0.32382273
   0.57308319  0.00000000  0.67617727
   0.07308319  0.50000000  0.67617727
   0.90971849  0.00000000  0.08095880
   0.40971849  0.50000000  0.08095880
   0.09028151 -0.00000000  0.91904120
   0.59028151  0.50000000  0.91904120
unknown system                          
           1
    12.421391    0.000000   -0.810253
     0.000000    3.196969    0.000000
    -0.111800    0.000000   10.094356
   Sr   Ir   O 
   4  10  20
Direct configuration=    10
   0.24444258  0.00000000  0.18062278
   0.74444258  0.50000000  0.18062278
   0.75555742 -0.00000000  0.81937722
   0.25555742  0.50000000  0.81937722
  -0.00000000  0.50000000  0.00000000
   0.50000000  0.00000000  0.00000000
   0.00298743  0.00000000  0.26292445
   0.50298743  0.50000000  0.26292445
  -0.00298743 -0.00000000  0.73707555
   0.49701257  0.50000000  0.73707555
   0.34274206  0.00000000  0.48269447
   0.84274206  0.50000000  0.48269447
   0.65725794  0.00000000  0.51730553
   0.15725794  0.50000000  0.51730553
   0.58471257 -0.00000000  0.18952271
   0.08471257  0.50000000  0.18952271
   0.41528743 -0.00000000  0.81047729
   0.91528743  0.50000000  0.81047729
   0.09654229 -0.00000000  0.42576863
   0.59654229  0.50000000  0.42576863
   0.90345771  0.00000000  0.57423137
   0.40345771  0.50000000  0.57423137
   0.76845402 -0.00000000  0.37217449
   0.26845402  0.50000000  0.37217449
   0.23154598  0.00000000  0.62782551
   0.73154598  0.50000000  0.62782551
   0.42580850  0.00000000  0.32389943
   0.92580850  0.50000000  0.32389943
   0.57419150  0.00000000  0.67610057
   0.07419150  0.50000000  0.67610057
   0.90927131  0.00000000  0.07868277
   0.40927131  0.50000000  0.07868277
   0.09072869 -0.00000000  0.92131723
   0.59072869  0.50000000  0.92131723
unknown system                          
           1
    12.503857    0.000000   -0.812635
     0.000000    3.191620    0.000000
    -0.111214    0.000000   10.144381
   Sr   Ir   O 
   4  10  20
Direct configuration=    11
   0.24458503  0.00000000  0.18176222
   0.74458503  0.50000000  0.18176222
   0.75541497 -0.00000000  0.81823778
   0.25541497  0.50000000  0.81823778
   0.00000000  0.50000000  0.00000000
   0.50000000  0.00000000  0.00000000
   0.00443689  0.00000000  0.26393081
   0.50443689  0.50000000  0.26393081
  -0.00443689 -0.00000000  0.73606919
   0.49556311  0.50000000  0.73606919
   0.34280246  0.00000000  0.47849658
   0.84280246  0.50000000  0.47849658
   0.65719754  0.00000000  0.52150342
   0.15719754  0.50000000  0.52150342
   0.58464160 -0.00000000  0.18782000
   0.08464160  0.50000000  0.18782000
   0.41535840 -0.00000000  0.81218000
   0.91535840  0.50000000  0.81218000
   0.09607570 -0.00000000  0.42550078
   0.59607570  0.50000000  0.42550078
   0.90392430  0.00000000  0.57449922
   0.40392430  0.50000000  0.57449922
   0.76907694 -0.00000000  0.37267361
   0.26907694  0.50000000  0.37267361
   0.23092306  0.00000000  0.62732639
   0.73092306  0.50000000  0.62732639
   0.42455625  0.00000000  0.32399121
   0.92455625  0.50000000  0.32399121
   0.57544375  0.00000000  0.67600879
   0.07544375  0.50000000  0.67600879
   0.90877331  0.00000000  0.07611598
   0.40877331  0.50000000  0.07611598
   0.09122669 -0.00000000  0.92388402
   0.59122669  0.50000000  0.92388402
unknown system                          
           1
    12.571335    0.000000   -0.814583
     0.000000    3.187244    0.000000
    -0.110735    0.000000   10.185314
   Sr   Ir   O 
   4  10  20
Direct configuration=    12
   0.24483763  0.00000000  0.18269085
   0.74483763  0.50000000  0.18269085
   0.75516237 -0.00000000  0.81730915
   0.25516237  0.50000000  0.81730915
   0.00000000  0.50000000  0.00000000
   0.50000000  0.00000000  0.00000000
   0.00445418  0.00000000  0.26336762
   0.50445418  0.50000000  0.26336762
  -0.00445418 -0.00000000  0.73663238
   0.49554582  0.50000000  0.73663238
   0.34271578  0.00000000  0.47878060
   0.84271578  0.50000000  0.47878060
   0.65728422  0.00000000  0.52121940
   0.15728422  0.50000000  0.52121940
   0.58490650 -0.00000000  0.18566935
   0.08490650  0.50000000  0.18566935
   0.41509350 -0.00000000  0.81433065
   0.91509350  0.50000000  0.81433065
   0.09633309 -0.00000000  0.42666468
   0.59633309  0.50000000  0.42666468
   0.90366691 -0.00000000  0.57333532
   0.40366691  0.50000000  0.57333532
   0.76874790 -0.00000000  0.37301059
   0.26874790  0.50000000  0.37301059
   0.23125210  0.00000000  0.62698941
   0.73125210  0.50000000  0.62698941
   0.42439412  0.00000000  0.32246009
   0.92439412  0.50000000  0.32246009
   0.57560588  0.00000000  0.67753991
   0.07560588  0.50000000  0.67753991
   0.90859478  0.00000000  0.07515196
   0.40859478  0.50000000  0.07515196
   0.09140522 -0.00000000  0.92484804
   0.59140522  0.50000000  0.92484804
unknown system                          
           1
    12.607900    0.000000   -0.811908
     0.000000    3.180822    0.000000
    -0.111085    0.000000   10.151435
   Sr   Ir   O 
   4  10  20
Direct configuration=    13
   0.24504289  0.00000000  0.18344690
   0.74504289  0.50000000  0.18344690
   0.75495711 -0.00000000  0.81655310
   0.25495711  0.50000000  0.81655310
   0.00000000  0.50000000  0.00000000
   0.50000000  0.00000000  0.00000000
   0.00446828  0.00000000  0.26290906
   0.50446828  0.50000000  0.26290906
  -0.00446828 -0.00000000  0.73709094
   0.49553172  0.50000000  0.73709094
   0.34264530  0.00000000  0.47901187
   0.84264530  0.50000000  0.47901187
   0.65735470  0.00000000  0.52098813
   0.15735470  0.50000000  0.52098813
   0.58512198 -0.00000000  0.18391819
   0.08512198  0.50000000  0.18391819
   0.41487802 -0.00000000  0.81608181
   0.91487802  0.50000000  0.81608181
   0.09654222 -0.00000000  0.42761228
   0.59654222  0.50000000  0.42761228
   0.90345778 -0.00000000  0.57238772
   0.40345778  0.50000000  0.57238772
   0.76848040 -0.00000000  0.37328504
   0.26848040  0.50000000  0.37328504
   0.23151960  0.00000000  0.62671496
   0.73151960  0.50000000  0.62671496
   0.42426245  0.00000000  0.32121346
   0.92426245  0.50000000  0.32121346
   0.57573755  0.00000000  0.67878654
   0.07573755  0.50000000  0.67878654
   0.90844973  0.00000000  0.07436708
   0.40844973  0.50000000  0.07436708
   0.09155027 -0.00000000  0.92563292
   0.59155027  0.50000000  0.92563292
unknown system                          
           1
    12.650034    0.000000   -0.808825
     0.000000    3.173422    0.000000
    -0.111488    0.000000   10.112397
   Sr   Ir   O 
   4  10  20
Direct configuration=    14
   0.24539524  0.00000000  0.18482079
   0.74539524  0.50000000  0.18482079
   0.75460476 -0.00000000  0.81517921
   0.25460476  0.50000000  0.81517921
   0.00000000  0.50000000  0.00000000
   0.50000000  0.00000000  0.00000000
   0.00517067  0.00000000  0.26232245
   0.50517067  0.50000000  0.26232245
  -0.00517067 -0.00000000  0.73767755
   0.49482933  0.50000000  0.73767755
   0.34276147  0.00000000  0.47860750
   0.84276147  0.50000000  0.47860750
   0.65723853  0.00000000  0.52139250
   0.15723853  0.50000000  0.52139250
   0.58543247 -0.00000000  0.18141178
   0.08543247  0.50000000  0.18141178
   0.41456753 -0.00000000  0.81858822
   0.91456753  0.50000000  0.81858822
   0.09594006 -0.00000000  0.42769660
   0.59594006  0.50000000  0.42769660
   0.90405994 -0.00000000  0.57230340
   0.40405994  0.50000000  0.57230340
   0.76775736 -0.00000000  0.37402643
   0.26775736  0.50000000  0.37402643
   0.23224264  0.00000000  0.62597357
   0.73224264  0.50000000  0.62597357
   0.42357041  0.00000000  0.31993772
   0.92357041  0.50000000  0.31993772
   0.57642959  0.00000000  0.68006228
   0.07642959  0.50000000  0.68006228
   0.90853238  0.00000000  0.07378954
   0.40853238  0.50000000  0.07378954
   0.09146762 -0.00000000  0.92621046
   0.59146762  0.50000000  0.92621046
unknown system                          
           1
    12.671768    0.000000   -0.775452
     0.000000    3.178245    0.000000
    -0.085407    0.000000   10.106046
   Sr   Ir   O 
   4  10  20
Direct configuration=    15
   0.24580017  0.00000000  0.18640898
   0.74580017  0.50000000  0.18640898
   0.75419983 -0.00000000  0.81359102
   0.25419983  0.50000000  0.81359102
   0.00000000  0.50000000  0.00000000
   0.50000000  0.00000000  0.00000000
   0.00597762  0.00000000  0.26164386
   0.50597762  0.50000000  0.26164386
  -0.00597762 -0.00000000  0.73835614
   0.49402238  0.50000000  0.73835614
   0.34289492  0.00000000  0.47813994
   0.84289492  0.50000000  0.47813994
   0.65710508  0.00000000  0.52186006
   0.15710508  0.50000000  0.52186006
   0.58578903 -0.00000000  0.17851387
   0.08578903  0.50000000  0.17851387
   0.41421097 -0.00000000  0.82148613
   0.91421097  0.50000000  0.82148613
   0.09524823 -0.00000000  0.42779443
   0.59524823  0.50000000  0.42779443
   0.90475177 -0.00000000  0.57220557
   0.40475177  0.50000000  0.57220557
   0.76692667 -0.00000000  0.37488398
   0.26692667  0.50000000  0.37488398
   0.23307333  0.00000000  0.62511602
   0.73307333  0.50000000  0.62511602
   0.42277522  0.00000000  0.31846320
   0.92277522  0.50000000  0.31846320
   0.57722478  0.00000000  0.68153680
   0.07722478  0.50000000  0.68153680
   0.90862731  0.00000000  0.07312178
   0.40862731  0.50000000  0.07312178
   0.09137269 -0.00000000  0.92687822
   0.59137269  0.50000000  0.92687822
unknown system                          
           1
    12.693662    0.000000   -0.741832
     0.000000    3.183105    0.000000
    -0.059134    0.000000   10.099648
   Sr   Ir   O 
   4  10  20
Direct configuration=    16
   0.24605767  0.00000000  0.18721183
   0.74605767  0.50000000  0.18721183
   0.75394233 -0.00000000  0.81278817
   0.25394233  0.50000000  0.81278817
   0.00000000  0.50000000  0.00000000
   0.50000000  0.00000000  0.00000000
   0.00615092  0.00000000  0.26033252
   0.50615092  0.50000000  0.26033252
  -0.00615092 -0.00000000  0.73966748
   0.49384908  0.50000000  0.73966748
   0.34336145  0.00000000  0.47776639
   0.84336145  0.50000000  0.47776639
   0.65663855  0.00000000  0.52223361
   0.15663855  0.50000000  0.52223361
   0.58677601 -0.00000000  0.17803690
   0.08677601  0.50000000  0.17803690
   0.41322399 -0.00000000  0.82196310
   0.91322399  0.50000000  0.82196310
   0.09438517 -0.00000000  0.42770508
   0.59438517  0.50000000  0.42770508
   0.90561483 -0.00000000  0.57229492
   0.40561483  0.50000000  0.57229492
   0.76616447 -0.00000000  0.37543100
   0.26616447  0.50000000  0.37543100
   0.23383553  0.00000000  0.62456900
   0.73383553  0.50000000  0.62456900
   0.42268178  0.00000000  0.31729597
   0.92268178  0.50000000  0.31729597
   0.57731822  0.00000000  0.68270403
   0.07731822  0.50000000  0.68270403
   0.90876578  0.00000000  0.07310844
   0.40876578  0.50000000  0.07310844
   0.09123422 -0.00000000  0.92689156
   0.59123422  0.50000000  0.92689156
unknown system                          
           1
    12.676436    0.000000   -0.722795
     0.000000    3.173741    0.000000
    -0.044922    0.000000   10.082287
   Sr   Ir   O 
   4  10  20
Direct configuration=    17
   0.24631497  0.00000000  0.18802010
   0.74631497  0.50000000  0.18802010
   0.75368503 -0.00000000  0.81197990
   0.25368503  0.50000000  0.81197990
   0.00000000  0.50000000  0.00000000
   0.50000000  0.00000000  0.00000000
   0.00632790  0.00000000  0.25901028
   0.50632790  0.50000000  0.25901028
  -0.00632790 -0.00000000  0.74098972
   0.49367210  0.50000000  0.74098972
   0.34383138  0.00000000  0.47738829
   0.84383138  0.50000000  0.47738829
   0.65616862 -0.00000000  0.52261171
   0.15616862  0.50000000  0.52261171
   0.58776954 -0.00000000  0.17755275
   0.08776954  0.50000000  0.17755275
   0.41223046 -0.00000000  0.82244725
   0.91223046  0.50000000  0.82244725
   0.09351742 -0.00000000  0.42761800
   0.59351742  0.50000000  0.42761800
   0.90648258 -0.00000000  0.57238200
   0.40648258  0.50000000  0.57238200
   0.76539684 -0.00000000  0.37598496
   0.26539684  0.50000000  0.37598496
   0.23460316  0.00000000  0.62401504
   0.73460316  0.50000000  0.62401504
   0.42259022  0.00000000  0.31611990
   0.92259022  0.50000000  0.31611990
   0.57740978  0.00000000  0.68388010
   0.07740978  0.50000000  0.68388010
   0.90890506  0.00000000  0.07309451
   0.40890506  0.50000000  0.07309451
   0.09109494 -0.00000000  0.92690549
   0.59109494  0.50000000  0.92690549
unknown system                          
           1
    12.675492    0.000000   -0.721752
     0.000000    3.173227    0.000000
    -0.044142    0.000000   10.081335
   Sr   Ir   O 
   4  10  20
Direct configuration=    18
   0.24662696  0.00000000  0.18866189
   0.74662696  0.50000000  0.18866189
   0.75337304 -0.00000000  0.81133811
   0.25337304  0.50000000  0.81133811
   0.00000000  0.50000000  0.00000000
   0.50000000  0.00000000  0.00000000
   0.00654208  0.00000000  0.25839172
   0.50654208  0.50000000  0.25839172
  -0.00654208 -0.00000000  0.74160828
   0.49345792  0.50000000  0.74160828
   0.34453522  0.00000000  0.47774710
   0.84453522  0.50000000  0.47774710
   0.65546478 -0.00000000  0.52225290
   0.15546478  0.50000000  0.52225290
   0.58909917 -0.00000000  0.17755562
   0.08909917  0.50000000  0.17755562
   0.41090083 -0.00000000  0.82244438
   0.91090083  0.50000000  0.82244438
   0.09249227 -0.00000000  0.42761154
   0.59249227  0.50000000  0.42761154
   0.90750773 -0.00000000  0.57238846
   0.40750773  0.50000000  0.57238846
   0.76511518  0.00000000  0.37670368
   0.26511518  0.50000000  0.37670368
   0.23488482  0.00000000  0.62329632
   0.73488482  0.50000000  0.62329632
   0.42322787  0.00000000  0.31413858
   0.92322787  0.50000000  0.31413858
   0.57677213  0.00000000  0.68586142
   0.07677213  0.50000000  0.68586142
   0.90923633  0.00000000  0.07332777
   0.40923633  0.50000000  0.07332777
   0.09076367 -0.00000000  0.92667223
   0.59076367  0.50000000  0.92667223
unknown system                          
           1
    12.672239    0.000000   -0.731628
     0.000000    3.176555    0.000000
    -0.051621    0.000000   10.087747
   Sr   Ir   O 
   4  10  20
Direct configuration=    19
   0.24664405  0.00000000  0.18869711
   0.74664405  0.50000000  0.18869711
   0.75335595 -0.00000000  0.81130289
   0.25335595  0.50000000  0.81130289
   0.00000000  0.50000000  0.00000000
   0.50000000  0.00000000  0.00000000
   0.00655387  0.00000000  0.25835772
   0.50655387  0.50000000  0.25835772
  -0.00655387 -0.00000000  0.74164228
   0.49344613  0.50000000  0.74164228
   0.34457385  0.00000000  0.47776674
   0.84457385  0.50000000  0.47776674
   0.65542615 -0.00000000  0.52223326
   0.15542615  0.50000000  0.52223326
   0.58917217 -0.00000000  0.17755564
   0.08917217  0.50000000  0.17755564
   0.41082783 -0.00000000  0.82244436
   0.91082783  0.50000000  0.82244436
   0.09243598 -0.00000000  0.42761129
   0.59243598  0.50000000  0.42761129
   0.90756402 -0.00000000  0.57238871
   0.40756402  0.50000000  0.57238871
   0.76509967  0.00000000  0.37674318
   0.26509967  0.50000000  0.37674318
   0.23490033  0.00000000  0.62325682
   0.73490033  0.50000000  0.62325682
   0.42326300  0.00000000  0.31402970
   0.92326300  0.50000000  0.31402970
   0.57673700  0.00000000  0.68597030
   0.07673700  0.50000000  0.68597030
   0.90925451  0.00000000  0.07334055
   0.40925451  0.50000000  0.07334055
   0.09074549 -0.00000000  0.92665945
   0.59074549  0.50000000  0.92665945
unknown system                          
           1
    12.670623    0.000000   -0.736536
     0.000000    3.178208    0.000000
    -0.055338    0.000000   10.090933
   Sr   Ir   O 
   4  10  20
Direct configuration=    20
   0.24693434  0.00000000  0.18875062
   0.74693434  0.50000000  0.18875062
   0.75306566 -0.00000000  0.81124938
   0.25306566  0.50000000  0.81124938
   0.00000000  0.50000000  0.00000000
   0.50000000  0.00000000  0.00000000
   0.00718895 -0.00000000  0.25825581
   0.50718895  0.50000000  0.25825581
  -0.00718895  0.00000000  0.74174419
   0.49281105  0.50000000  0.74174419
   0.34520433  0.00000000  0.47769541
   0.84520433  0.50000000  0.47769541
   0.65479567  0.00000000  0.52230459
   0.15479567  0.50000000  0.52230459
   0.59007549 -0.00000000  0.17755974
   0.09007549  0.50000000  0.17755974
   0.40992451 -0.00000000  0.82244026
   0.90992451  0.50000000  0.82244026
   0.09171914 -0.00000000  0.42767994
   0.59171914  0.50000000  0.42767994
   0.90828086 -0.00000000  0.57232006
   0.40828086  0.50000000  0.57232006
   0.76553468  0.00000000  0.37711719
   0.26553468  0.50000000  0.37711719
   0.23446532  0.00000000  0.62288281