   31   31  901    2
  0.1236476E+02  0.1392900E-08  0.2845900E-09  0.9678000E-09  0.5000000E-15
  1.000000000000000E-004
  CAR 
 unknown system                          
    220     12    144
 
  0.2500000E+00  0.8333333E-01  0.1250000E+00  0.8333333E-01
    1      -31.742714    -31.742714   1.000000   1.000000
    2      -16.901714    -16.901714   1.000000   1.000000
    3      -16.739337    -16.739337   1.000000   1.000000
    4      -16.464414    -16.464414   1.000000   1.000000
    5      -16.341929    -16.341929   1.000000   1.000000
    6      -16.290058    -16.290058   1.000000   1.000000
    7      -16.120736    -16.120736   1.000000   1.000000
    8      -16.048249    -16.048249   1.000000   1.000000
    9      -15.980894    -15.980894   1.000000   1.000000
   10      -15.755790    -15.755790   1.000000   1.000000
   11      -15.720872    -15.720872   1.000000   1.000000
   12      -15.523468    -15.523468   1.000000   1.000000
   13      -15.369614    -15.369614   1.000000   1.000000
   14      -15.170742    -15.170742   1.000000   1.000000
   15      -15.097750    -15.097750   1.000000   1.000000
   16      -14.956269    -14.956269   1.000000   1.000000
   17      -14.922833    -14.922833   1.000000   1.000000
   18      -14.845259    -14.845259   1.000000   1.000000
   19      -14.794450    -14.794450   1.000000   1.000000
   20      -14.747238    -14.747238   1.000000   1.000000
   21      -14.645774    -14.645774   1.000000   1.000000
   22      -13.469769    -13.469769   1.000000   1.000000
   23      -13.234757    -13.234757   1.000000   1.000000
   24      -13.190246    -13.190246   1.000000   1.000000
   25       -4.848693     -4.848693   1.000000   1.000000
   26       -4.816551     -4.816551   1.000000   1.000000
   27       -4.748635     -4.748635   1.000000   1.000000
   28       -4.592273     -4.592273   1.000000   1.000000
   29       -4.537953     -4.537953   1.000000   1.000000
   30       -4.365416     -4.365416   1.000000   1.000000
   31       -4.275626     -4.275626   1.000000   1.000000
   32       -4.183972     -4.183972   1.000000   1.000000
   33       -3.827246     -3.827246   1.000000   1.000000
   34       -3.720117     -3.720117   1.000000   1.000000
   35       -3.671474     -3.671474   1.000000   1.000000
   36       -3.648430     -3.648430   1.000000   1.000000
   37       -3.591867     -3.591867   1.000000   1.000000
   38       -3.522929     -3.522929   1.000000   1.000000
   39       -3.462534     -3.462534   1.000000   1.000000
   40       -3.419713     -3.419713   1.000000   1.000000
   41       -3.356994     -3.356994   1.000000   1.000000
   42       -3.264107     -3.264107   1.000000   1.000000
   43       -3.211468     -3.211468   1.000000   1.000000
   44       -3.067113     -3.067113   1.000000   1.000000
   45       -3.037132     -3.037132   1.000000   1.000000
   46       -2.904104     -2.904104   1.000000   1.000000
   47       -2.796328     -2.796328   1.000000   1.000000
   48       -2.693105     -2.693105   1.000000   1.000000
   49       -2.495188     -2.495188   1.000000   1.000000
   50       -2.333273     -2.333273   1.000000   1.000000
   51       -2.151462     -2.151462   1.000000   1.000000
   52       -2.013382     -2.013382   1.000000   1.000000
   53       -1.889433     -1.889433   1.000000   1.000000
   54       -1.771159     -1.771159   1.000000   1.000000
   55       -1.556856     -1.556856   1.000000   1.000000
   56       -1.462877     -1.462877   1.000000   1.000000
   57       -1.318454     -1.318454   1.000000   1.000000
   58       -1.239616     -1.239616   1.000000   1.000000
   59       -1.210376     -1.210376   1.000000   1.000000
   60       -1.108317     -1.108317   1.000000   1.000000
   61       -0.988915     -0.988915   1.000000   1.000000
   62       -0.948123     -0.948123   1.000000   1.000000
   63       -0.861487     -0.861487   1.000000   1.000000
   64       -0.781976     -0.781976   1.000000   1.000000
   65       -0.731044     -0.731044   1.000000   1.000000
   66       -0.606169     -0.606169   1.000000   1.000000
   67       -0.524396     -0.524396   1.000000   1.000000
   68       -0.478628     -0.478628   1.000000   1.000000
   69       -0.393125     -0.393125   1.000000   1.000000
   70       -0.323997     -0.323997   1.000000   1.000000
   71       -0.069522     -0.069522   1.000000   1.000000
   72        0.023615      0.023615   1.000000   1.000000
   73        0.059960      0.059960   1.000000   1.000000
   74        0.191188      0.191188   1.000000   1.000000
   75        0.230189      0.230189   1.000000   1.000000
   76        0.376896      0.376896   1.000000   1.000000
   77        0.461006      0.461006   1.000000   1.000000
   78        0.540052      0.540052   1.000000   1.000000
   79        0.667741      0.667741   1.000000   1.000000
   80        0.721028      0.721028   1.000000   1.000000
   81        0.801527      0.801527   1.000000   1.000000
   82        0.935163      0.935163   1.000000   1.000000
   83        1.037941      1.037941   1.000000   1.000000
   84        1.082694      1.082694   1.000000   1.000000
   85        1.761523      1.761523   1.000000   1.000000
   86        2.039633      2.039633   1.000000   1.000000
   87        2.068268      2.068268   1.000000   1.000000
   88        2.135934      2.135934   1.000000   1.000000
   89        2.246910      2.246910   1.000000   1.000000
   90        2.271535      2.271535   1.000000   1.000000
   91        2.357988      2.357988   1.000000   1.000000
   92        2.470908      2.470908   1.000000   1.000000
   93        2.511722      2.511722   1.000000   1.000000
   94        2.597993      2.597993   1.000000   1.000000
   95        2.663594      2.663594   1.000000   1.000000
   96        2.733948      2.733948   1.000000   1.000000
   97        2.771738      2.771738   1.000000   1.000000
   98        2.819895      2.819895   1.000000   1.000000
   99        2.864121      2.864121   1.000000   1.000000
  100        2.906890      2.906890   1.000000   1.000000
  101        2.959096      2.959096   1.000000   1.000000
  102        3.073786      3.073786   1.000000   1.000000
  103        3.163963      3.163963   1.000000   1.000000
  104        3.270058      3.270058   1.000000   1.000000
  105        3.369630      3.369630   0.999995   0.999995
  106        3.440931      3.440931   0.999957   0.999957
  107        3.710206      3.710206   0.995069   0.995069
  108        3.789988      3.789988   1.002904   1.002904
  109        3.910366      3.910366   1.050026   1.050026
  110        4.096828      4.096828   0.603116   0.603116
  111        4.191462      4.191462   0.143594   0.143594
  112        4.309803      4.309803  -0.051603  -0.051603
  113        4.548608      4.548608   0.004465   0.004465
  114        4.695112      4.695112   0.000482   0.000482
  115        5.843198      5.843198   0.000000   0.000000
  116        6.044615      6.044615   0.000000   0.000000
  117        6.319481      6.319481   0.000000   0.000000
  118        6.521672      6.521672   0.000000   0.000000
  119        6.608889      6.608889   0.000000   0.000000
  120        6.715787      6.715787   0.000000   0.000000
  121        6.813691      6.813691   0.000000   0.000000
  122        6.860198      6.860198   0.000000   0.000000
  123        7.000239      7.000239   0.000000   0.000000
  124        7.049502      7.049502   0.000000   0.000000
  125        7.118849      7.118849   0.000000   0.000000
  126        7.226095      7.226095   0.000000   0.000000
  127        7.444116      7.444116   0.000000   0.000000
  128        7.572502      7.572502   0.000000   0.000000
  129        7.620645      7.620645   0.000000   0.000000
  130        7.692442      7.692442   0.000000   0.000000
  131        7.728019      7.728019   0.000000   0.000000
  132        7.799385      7.799385   0.000000   0.000000
  133        7.863771      7.863771   0.000000   0.000000
  134        7.887958      7.887958   0.000000   0.000000
  135        8.256824      8.256824   0.000000   0.000000
  136        8.475654      8.475654   0.000000   0.000000
  137        8.697818      8.697818   0.000000   0.000000
  138        9.025444      9.025444   0.000000   0.000000
  139        9.396178      9.396178   0.000000   0.000000
  140        9.777295      9.777295   0.000000   0.000000
  141       10.283066     10.283066   0.000000   0.000000
  142       10.677603     10.677603   0.000000   0.000000
  143       10.955777     10.955777   0.000000   0.000000
  144       11.096068     11.096068   0.000000   0.000000
 
 -0.2500000E+00  0.8333333E-01  0.1250000E+00  0.8333333E-01
    1      -31.742717    -31.742717   1.000000   1.000000
    2      -16.902173    -16.902173   1.000000   1.000000
    3      -16.735765    -16.735765   1.000000   1.000000
    4      -16.486713    -16.486713   1.000000   1.000000
    5      -16.312254    -16.312254   1.000000   1.000000
    6      -16.276797    -16.276797   1.000000   1.000000
    7      -16.163576    -16.163576   1.000000   1.000000
    8      -16.025701    -16.025701   1.000000   1.000000
    9      -15.986657    -15.986657   1.000000   1.000000
   10      -15.761196    -15.761196   1.000000   1.000000
   11      -15.712685    -15.712685   1.000000   1.000000
   12      -15.525893    -15.525893   1.000000   1.000000
   13      -15.362022    -15.362022   1.000000   1.000000
   14      -15.194720    -15.194720   1.000000   1.000000
   15      -15.077792    -15.077792   1.000000   1.000000
   16      -14.972772    -14.972772   1.000000   1.000000
   17      -14.905387    -14.905387   1.000000   1.000000
   18      -14.847526    -14.847526   1.000000   1.000000
   19      -14.795133    -14.795133   1.000000   1.000000
   20      -14.748948    -14.748948   1.000000   1.000000
   21      -14.645892    -14.645892   1.000000   1.000000
   22      -13.469787    -13.469787   1.000000   1.000000
   23      -13.234766    -13.234766   1.000000   1.000000
   24      -13.190300    -13.190300   1.000000   1.000000
   25       -4.851555     -4.851555   1.000000   1.000000
   26       -4.800342     -4.800342   1.000000   1.000000
   27       -4.763328     -4.763328   1.000000   1.000000
   28       -4.594433     -4.594433   1.000000   1.000000
   29       -4.540103     -4.540103   1.000000   1.000000
   30       -4.345981     -4.345981   1.000000   1.000000
   31       -4.269652     -4.269652   1.000000   1.000000
   32       -4.210025     -4.210025   1.000000   1.000000
   33       -3.825622     -3.825622   1.000000   1.000000
   34       -3.707562     -3.707562   1.000000   1.000000
   35       -3.685166     -3.685166   1.000000   1.000000
   36       -3.645527     -3.645527   1.000000   1.000000
   37       -3.590026     -3.590026   1.000000   1.000000
   38       -3.516631     -3.516631   1.000000   1.000000
   39       -3.458177     -3.458177   1.000000   1.000000
   40       -3.427612     -3.427612   1.000000   1.000000
   41       -3.355455     -3.355455   1.000000   1.000000
   42       -3.263198     -3.263198   1.000000   1.000000
   43       -3.228056     -3.228056   1.000000   1.000000
   44       -3.082112     -3.082112   1.000000   1.000000
   45       -3.010524     -3.010524   1.000000   1.000000
   46       -2.917216     -2.917216   1.000000   1.000000
   47       -2.774774     -2.774774   1.000000   1.000000
   48       -2.681370     -2.681370   1.000000   1.000000
   49       -2.515565     -2.515565   1.000000   1.000000
   50       -2.333492     -2.333492   1.000000   1.000000
   51       -2.201504     -2.201504   1.000000   1.000000
   52       -1.996560     -1.996560   1.000000   1.000000
   53       -1.819554     -1.819554   1.000000   1.000000
   54       -1.735739     -1.735739   1.000000   1.000000
   55       -1.591329     -1.591329   1.000000   1.000000
   56       -1.453594     -1.453594   1.000000   1.000000
   57       -1.421430     -1.421430   1.000000   1.000000
   58       -1.277873     -1.277873   1.000000   1.000000
   59       -1.139690     -1.139690   1.000000   1.000000
   60       -1.088206     -1.088206   1.000000   1.000000
   61       -0.969039     -0.969039   1.000000   1.000000
   62       -0.937886     -0.937886   1.000000   1.000000
   63       -0.837648     -0.837648   1.000000   1.000000
   64       -0.823900     -0.823900   1.000000   1.000000
   65       -0.778446     -0.778446   1.000000   1.000000
   66       -0.593742     -0.593742   1.000000   1.000000
   67       -0.537094     -0.537094   1.000000   1.000000
   68       -0.445087     -0.445087   1.000000   1.000000
   69       -0.381553     -0.381553   1.000000   1.000000
   70       -0.277084     -0.277084   1.000000   1.000000
   71       -0.167810     -0.167810   1.000000   1.000000
   72        0.001523      0.001523   1.000000   1.000000
   73        0.140416      0.140416   1.000000   1.000000
   74        0.193681      0.193681   1.000000   1.000000
   75        0.211997      0.211997   1.000000   1.000000
   76        0.386104      0.386104   1.000000   1.000000
   77        0.426072      0.426072   1.000000   1.000000
   78        0.538729      0.538729   1.000000   1.000000
   79        0.677925      0.677925   1.000000   1.000000
   80        0.746453      0.746453   1.000000   1.000000
   81        0.793906      0.793906   1.000000   1.000000
   82        0.940791      0.940791   1.000000   1.000000
   83        1.000025      1.000025   1.000000   1.000000
   84        1.109065      1.109065   1.000000   1.000000
   85        1.754008      1.754008   1.000000   1.000000
   86        2.031959      2.031959   1.000000   1.000000
   87        2.079887      2.079887   1.000000   1.000000
   88        2.168206      2.168206   1.000000   1.000000
   89        2.227215      2.227215   1.000000   1.000000
   90        2.249616      2.249616   1.000000   1.000000
   91        2.397541      2.397541   1.000000   1.000000
   92        2.459269      2.459269   1.000000   1.000000
   93        2.531909      2.531909   1.000000   1.000000
   94        2.571275      2.571275   1.000000   1.000000
   95        2.620377      2.620377   1.000000   1.000000
   96        2.753802      2.753802   1.000000   1.000000
   97        2.784007      2.784007   1.000000   1.000000
   98        2.812308      2.812308   1.000000   1.000000
   99        2.836173      2.836173   1.000000   1.000000
  100        2.920181      2.920181   1.000000   1.000000
  101        2.979264      2.979264   1.000000   1.000000
  102        3.072669      3.072669   1.000000   1.000000
  103        3.193901      3.193901   1.000000   1.000000
  104        3.239683      3.239683   1.000000   1.000000
  105        3.375043      3.375043   0.999994   0.999994
  106        3.443329      3.443329   0.999954   0.999954
  107        3.694700      3.694700   0.995270   0.995270
  108        3.811858      3.811858   1.009302   1.009302
  109        3.901757      3.901757   1.047790   1.047790
  110        4.086726      4.086726   0.654650   0.654650
  111        4.169900      4.169900   0.232494   0.232494
  112        4.351620      4.351620  -0.039958  -0.039958
  113        4.526975      4.526975   0.004905   0.004905
  114        4.700318      4.700318   0.000430   0.000430
  115        5.888645      5.888645   0.000000   0.000000
  116        5.986284      5.986284   0.000000   0.000000
  117        6.335224      6.335224   0.000000   0.000000
  118        6.481386      6.481386   0.000000   0.000000
  119        6.638944      6.638944   0.000000   0.000000
  120        6.735421      6.735421   0.000000   0.000000
  121        6.801247      6.801247   0.000000   0.000000
  122        6.888080      6.888080   0.000000   0.000000
  123        6.959574      6.959574   0.000000   0.000000
  124        7.024913      7.024913   0.000000   0.000000
  125        7.140035      7.140035   0.000000   0.000000
  126        7.225627      7.225627   0.000000   0.000000
  127        7.489472      7.489472   0.000000   0.000000
  128        7.572421      7.572421   0.000000   0.000000
  129        7.635291      7.635291   0.000000   0.000000
  130        7.658712      7.658712   0.000000   0.000000
  131        7.723283      7.723283   0.000000   0.000000
  132        7.805613      7.805613   0.000000   0.000000
  133        7.847672      7.847672   0.000000   0.000000
  134        7.905063      7.905063   0.000000   0.000000
  135        8.207916      8.207916   0.000000   0.000000
  136        8.519518      8.519518   0.000000   0.000000
  137        8.697044      8.697044   0.000000   0.000000
  138        8.990974      8.990974   0.000000   0.000000
  139        9.439632      9.439632   0.000000   0.000000
  140        9.836995      9.836995   0.000000   0.000000
  141       10.221844     10.221844   0.000000   0.000000
  142       10.566359     10.566359   0.000000   0.000000
  143       10.898797     10.898797   0.000000   0.000000
  144       11.129928     11.129928   0.000000   0.000000
 
  0.2500000E+00  0.2500000E+00  0.1250000E+00  0.8333333E-01
    1      -31.656220    -31.656220   1.000000   1.000000
    2      -16.511218    -16.511218   1.000000   1.000000
    3      -16.366261    -16.366261   1.000000   1.000000
    4      -16.128855    -16.128855   1.000000   1.000000
    5      -16.052259    -16.052259   1.000000   1.000000
    6      -16.036135    -16.036135   1.000000   1.000000
    7      -15.903055    -15.903055   1.000000   1.000000
    8      -15.763728    -15.763728   1.000000   1.000000
    9      -15.740739    -15.740739   1.000000   1.000000
   10      -15.642872    -15.642872   1.000000   1.000000
   11      -15.602970    -15.602970   1.000000   1.000000
   12      -15.566026    -15.566026   1.000000   1.000000
   13      -15.359280    -15.359280   1.000000   1.000000
   14      -15.301345    -15.301345   1.000000   1.000000
   15      -15.182780    -15.182780   1.000000   1.000000
   16      -15.087949    -15.087949   1.000000   1.000000
   17      -15.051514    -15.051514   1.000000   1.000000
   18      -14.981014    -14.981014   1.000000   1.000000
   19      -14.916775    -14.916775   1.000000   1.000000
   20      -14.897218    -14.897218   1.000000   1.000000
   21      -14.801819    -14.801819   1.000000   1.000000
   22      -13.748923    -13.748923   1.000000   1.000000
   23      -13.481907    -13.481907   1.000000   1.000000
   24      -13.302571    -13.302571   1.000000   1.000000
   25       -4.385793     -4.385793   1.000000   1.000000
   26       -4.330173     -4.330173   1.000000   1.000000
   27       -4.240125     -4.240125   1.000000   1.000000
   28       -4.186271     -4.186271   1.000000   1.000000
   29       -4.151457     -4.151457   1.000000   1.000000
   30       -3.967359     -3.967359   1.000000   1.000000
   31       -3.934989     -3.934989   1.000000   1.000000
   32       -3.905243     -3.905243   1.000000   1.000000
   33       -3.768355     -3.768355   1.000000   1.000000
   34       -3.648995     -3.648995   1.000000   1.000000
   35       -3.551501     -3.551501   1.000000   1.000000
   36       -3.508175     -3.508175   1.000000   1.000000
   37       -3.457714     -3.457714   1.000000   1.000000
   38       -3.420049     -3.420049   1.000000   1.000000
   39       -3.302784     -3.302784   1.000000   1.000000
   40       -3.255252     -3.255252   1.000000   1.000000
   41       -3.219434     -3.219434   1.000000   1.000000
   42       -3.116502     -3.116502   1.000000   1.000000
   43       -3.016604     -3.016604   1.000000   1.000000
   44       -2.954784     -2.954784   1.000000   1.000000
   45       -2.892401     -2.892401   1.000000   1.000000
   46       -2.754118     -2.754118   1.000000   1.000000
   47       -2.684085     -2.684085   1.000000   1.000000
   48       -2.586206     -2.586206   1.000000   1.000000
   49       -2.528227     -2.528227   1.000000   1.000000
   50       -2.352686     -2.352686   1.000000   1.000000
   51       -2.329399     -2.329399   1.000000   1.000000
   52       -2.259435     -2.259435   1.000000   1.000000
   53       -2.194814     -2.194814   1.000000   1.000000
   54       -2.094150     -2.094150   1.000000   1.000000
   55       -1.925109     -1.925109   1.000000   1.000000
   56       -1.816744     -1.816744   1.000000   1.000000
   57       -1.705038     -1.705038   1.000000   1.000000
   58       -1.594090     -1.594090   1.000000   1.000000
   59       -1.453521     -1.453521   1.000000   1.000000
   60       -1.381049     -1.381049   1.000000   1.000000
   61       -1.332720     -1.332720   1.000000   1.000000
   62       -1.159320     -1.159320   1.000000   1.000000
   63       -1.091375     -1.091375   1.000000   1.000000
   64       -1.042294     -1.042294   1.000000   1.000000
   65       -0.922401     -0.922401   1.000000   1.000000
   66       -0.781653     -0.781653   1.000000   1.000000
   67       -0.712308     -0.712308   1.000000   1.000000
   68       -0.658302     -0.658302   1.000000   1.000000
   69       -0.576680     -0.576680   1.000000   1.000000
   70       -0.472834     -0.472834   1.000000   1.000000
   71       -0.395418     -0.395418   1.000000   1.000000
   72       -0.323767     -0.323767   1.000000   1.000000
   73       -0.288433     -0.288433   1.000000   1.000000
   74       -0.207869     -0.207869   1.000000   1.000000
   75       -0.181381     -0.181381   1.000000   1.000000
   76       -0.075018     -0.075018   1.000000   1.000000
   77        0.042082      0.042082   1.000000   1.000000
   78        0.195478      0.195478   1.000000   1.000000
   79        0.389285      0.389285   1.000000   1.000000
   80        0.419760      0.419760   1.000000   1.000000
   81        0.529219      0.529219   1.000000   1.000000
   82        0.798029      0.798029   1.000000   1.000000
   83        0.924577      0.924577   1.000000   1.000000
   84        0.974681      0.974681   1.000000   1.000000
   85        1.819287      1.819287   1.000000   1.000000
   86        2.002511      2.002511   1.000000   1.000000
   87        2.303019      2.303019   1.000000   1.000000
   88        2.442140      2.442140   1.000000   1.000000
   89        2.455138      2.455138   1.000000   1.000000
   90        2.601876      2.601876   1.000000   1.000000
   91        2.619340      2.619340   1.000000   1.000000
   92        2.684872      2.684872   1.000000   1.000000
   93        2.785197      2.785197   1.000000   1.000000
   94        2.887301      2.887301   1.000000   1.000000
   95        2.947497      2.947497   1.000000   1.000000
   96        2.992310      2.992310   1.000000   1.000000
   97        3.107222      3.107222   1.000000   1.000000
   98        3.171667      3.171667   1.000000   1.000000
   99        3.195993      3.195993   1.000000   1.000000
  100        3.251667      3.251667   1.000000   1.000000
  101        3.303915      3.303915   0.999999   0.999999
  102        3.390423      3.390423   0.999990   0.999990
  103        3.422363      3.422363   0.999975   0.999975
  104        3.572976      3.572976   0.999015   0.999015
  105        3.595459      3.595459   0.998522   0.998522
  106        3.734334      3.734334   0.995500   0.995500
  107        3.792482      3.792482   1.003524   1.003524
  108        3.864823      3.864823   1.032263   1.032263
  109        3.911718      3.911718   1.050300   1.050300
  110        4.085006      4.085006   0.663260   0.663260
  111        4.151906      4.151906   0.317069   0.317069
  112        4.218555      4.218555   0.055461   0.055461
  113        4.398796      4.398796  -0.017966  -0.017966
  114        4.537556      4.537556   0.004744   0.004744
  115        5.816046      5.816046   0.000000   0.000000
  116        5.990675      5.990675   0.000000   0.000000
  117        6.178824      6.178824   0.000000   0.000000
  118        6.251821      6.251821   0.000000   0.000000
  119        6.343283      6.343283   0.000000   0.000000
  120        6.472291      6.472291   0.000000   0.000000
  121        6.597744      6.597744   0.000000   0.000000
  122        6.654663      6.654663   0.000000   0.000000
  123        6.749802      6.749802   0.000000   0.000000
  124        6.823291      6.823291   0.000000   0.000000
  125        6.905133      6.905133   0.000000   0.000000
  126        6.990785      6.990785   0.000000   0.000000
  127        7.111308      7.111308   0.000000   0.000000
  128        7.181731      7.181731   0.000000   0.000000
  129        7.325441      7.325441   0.000000   0.000000
  130        7.437397      7.437397   0.000000   0.000000
  131        7.500595      7.500595   0.000000   0.000000
  132        7.640303      7.640303   0.000000   0.000000
  133        7.818401      7.818401   0.000000   0.000000
  134        7.991063      7.991063   0.000000   0.000000
  135        8.151135      8.151135   0.000000   0.000000
  136        8.622935      8.622935   0.000000   0.000000
  137        9.485464      9.485464   0.000000   0.000000
  138        9.618219      9.618219   0.000000   0.000000
  139        9.897841      9.897841   0.000000   0.000000
  140       10.178954     10.178954   0.000000   0.000000
  141       10.623551     10.623551   0.000000   0.000000
  142       11.183652     11.183652   0.000000   0.000000
  143       11.355230     11.355230   0.000000   0.000000
  144       11.646351     11.646351   0.000000   0.000000
 
 -0.2500000E+00  0.2500000E+00  0.1250000E+00  0.8333333E-01
    1      -31.656220    -31.656220   1.000000   1.000000
    2      -16.511662    -16.511662   1.000000   1.000000
    3      -16.364036    -16.364036   1.000000   1.000000
    4      -16.142552    -16.142552   1.000000   1.000000
    5      -16.049432    -16.049432   1.000000   1.000000
    6      -16.021022    -16.021022   1.000000   1.000000
    7      -15.907473    -15.907473   1.000000   1.000000
    8      -15.766325    -15.766325   1.000000   1.000000
    9      -15.741601    -15.741601   1.000000   1.000000
   10      -15.645170    -15.645170   1.000000   1.000000
   11      -15.598930    -15.598930   1.000000   1.000000
   12      -15.567022    -15.567022   1.000000   1.000000
   13      -15.354906    -15.354906   1.000000   1.000000
   14      -15.305992    -15.305992   1.000000   1.000000
   15      -15.181814    -15.181814   1.000000   1.000000
   16      -15.089051    -15.089051   1.000000   1.000000
   17      -15.052110    -15.052110   1.000000   1.000000
   18      -14.978396    -14.978396   1.000000   1.000000
   19      -14.919304    -14.919304   1.000000   1.000000
   20      -14.895658    -14.895658   1.000000   1.000000
   21      -14.801781    -14.801781   1.000000   1.000000
   22      -13.748915    -13.748915   1.000000   1.000000
   23      -13.481912    -13.481912   1.000000   1.000000
   24      -13.302582    -13.302582   1.000000   1.000000
   25       -4.385518     -4.385518   1.000000   1.000000
   26       -4.329381     -4.329381   1.000000   1.000000
   27       -4.240561     -4.240561   1.000000   1.000000
   28       -4.188685     -4.188685   1.000000   1.000000
   29       -4.152885     -4.152885   1.000000   1.000000
   30       -3.958658     -3.958658   1.000000   1.000000
   31       -3.934910     -3.934910   1.000000   1.000000
   32       -3.903927     -3.903927   1.000000   1.000000
   33       -3.787959     -3.787959   1.000000   1.000000
   34       -3.641286     -3.641286   1.000000   1.000000
   35       -3.535762     -3.535762   1.000000   1.000000
   36       -3.501669     -3.501669   1.000000   1.000000
   37       -3.446346     -3.446346   1.000000   1.000000
   38       -3.428170     -3.428170   1.000000   1.000000
   39       -3.318852     -3.318852   1.000000   1.000000
   40       -3.268459     -3.268459   1.000000   1.000000
   41       -3.185615     -3.185615   1.000000   1.000000
   42       -3.138257     -3.138257   1.000000   1.000000
   43       -3.074004     -3.074004   1.000000   1.000000
   44       -2.940419     -2.940419   1.000000   1.000000
   45       -2.872502     -2.872502   1.000000   1.000000
   46       -2.738473     -2.738473   1.000000   1.000000
   47       -2.657114     -2.657114   1.000000   1.000000
   48       -2.576143     -2.576143   1.000000   1.000000
   49       -2.512437     -2.512437   1.000000   1.000000
   50       -2.386363     -2.386363   1.000000   1.000000
   51       -2.333451     -2.333451   1.000000   1.000000
   52       -2.251961     -2.251961   1.000000   1.000000
   53       -2.216163     -2.216163   1.000000   1.000000
   54       -2.121043     -2.121043   1.000000   1.000000
   55       -1.917492     -1.917492   1.000000   1.000000
   56       -1.843384     -1.843384   1.000000   1.000000
   57       -1.691231     -1.691231   1.000000   1.000000
   58       -1.541791     -1.541791   1.000000   1.000000
   59       -1.444450     -1.444450   1.000000   1.000000
   60       -1.387351     -1.387351   1.000000   1.000000
   61       -1.314735     -1.314735   1.000000   1.000000
   62       -1.188737     -1.188737   1.000000   1.000000
   63       -1.084328     -1.084328   1.000000   1.000000
   64       -1.020602     -1.020602   1.000000   1.000000
   65       -0.956599     -0.956599   1.000000   1.000000
   66       -0.815612     -0.815612   1.000000   1.000000
   67       -0.687104     -0.687104   1.000000   1.000000
   68       -0.629213     -0.629213   1.000000   1.000000
   69       -0.586994     -0.586994   1.000000   1.000000
   70       -0.488889     -0.488889   1.000000   1.000000
   71       -0.430216     -0.430216   1.000000   1.000000
   72       -0.358432     -0.358432   1.000000   1.000000
   73       -0.273830     -0.273830   1.000000   1.000000
   74       -0.176904     -0.176904   1.000000   1.000000
   75       -0.148430     -0.148430   1.000000   1.000000
   76       -0.051131     -0.051131   1.000000   1.000000
   77        0.013148      0.013148   1.000000   1.000000