       N       E                     dE             d eps       ncg     rms          rms(c)
DAV:   1     0.222780839383E+04    0.22278E+04   -0.92838E+04  6912   0.123E+03
DAV:   2     0.409874458205E+02   -0.21868E+04   -0.20471E+04  7136   0.402E+02
DAV:   3    -0.224186879944E+03   -0.26517E+03   -0.25362E+03  8792   0.153E+02
DAV:   4    -0.235187489866E+03   -0.11001E+02   -0.10761E+02  8920   0.319E+01
DAV:   5    -0.235581456839E+03   -0.39397E+00   -0.39339E+00 10368   0.501E+00    0.147E+02
RMM:   6    -0.201455388255E+03    0.34126E+02   -0.16865E+02  6917   0.325E+01    0.814E+01
RMM:   7    -0.208985428383E+03   -0.75300E+01   -0.24754E+01  6924   0.144E+01    0.481E+01
RMM:   8    -0.211569174138E+03   -0.25837E+01   -0.21798E+01  6921   0.125E+01    0.696E+01
RMM:   9    -0.203016705496E+03    0.85525E+01   -0.44359E+00  6921   0.562E+00    0.235E+01
RMM:  10    -0.202224426071E+03    0.79228E+00   -0.60491E+00  6916   0.628E+00    0.201E+01
RMM:  11    -0.198437008242E+03    0.37874E+01   -0.14738E+00  6922   0.311E+00    0.140E+01
RMM:  12    -0.197874122093E+03    0.56289E+00   -0.47207E-01  6946   0.174E+00    0.119E+01
RMM:  13    -0.197569626731E+03    0.30450E+00   -0.34906E-01  6912   0.149E+00    0.832E+00
RMM:  14    -0.197526829311E+03    0.42797E-01   -0.17402E-01  6912   0.108E+00    0.622E+00
RMM:  15    -0.197762288332E+03   -0.23546E+00   -0.77500E-02  6915   0.702E-01    0.592E+00
RMM:  16    -0.198024993295E+03   -0.26270E+00   -0.13542E-01  6916   0.860E-01    0.427E+00
RMM:  17    -0.198472374431E+03   -0.44738E+00   -0.29155E-01  6920   0.115E+00    0.301E+00
RMM:  18    -0.198583699757E+03   -0.11133E+00   -0.99874E-02  6947   0.625E-01    0.214E+00
RMM:  19    -0.198646688890E+03   -0.62989E-01   -0.40060E-02  6931   0.380E-01    0.215E+00
RMM:  20    -0.198665261739E+03   -0.18573E-01   -0.15770E-02  7088   0.236E-01    0.142E+00
RMM:  21    -0.198694596432E+03   -0.29335E-01   -0.18164E-02  6918   0.262E-01    0.142E+00
RMM:  22    -0.198690167288E+03    0.44291E-02   -0.35150E-03  7152   0.123E-01    0.947E-01
RMM:  23    -0.198693037194E+03   -0.28699E-02   -0.10252E-03  6961   0.781E-02    0.101E+00
RMM:  24    -0.198693574547E+03   -0.53735E-03   -0.71591E-04  6937   0.674E-02    0.731E-01
RMM:  25    -0.198692296096E+03    0.12785E-02   -0.99747E-04  6918   0.790E-02    0.435E-01
RMM:  26    -0.198693130751E+03   -0.83466E-03   -0.30457E-04  6918   0.481E-02    0.459E-01
RMM:  27    -0.198693193567E+03   -0.62815E-04   -0.29300E-04  6914   0.421E-02    0.300E-01
RMM:  28    -0.198693727463E+03   -0.53390E-03   -0.58317E-04  6913   0.583E-02    0.128E-01
RMM:  29    -0.198693779007E+03   -0.51543E-04   -0.26797E-04  6940   0.446E-02    0.102E-01
RMM:  30    -0.198693854848E+03   -0.75841E-04   -0.10021E-04  7066   0.274E-02    0.120E-01
RMM:  31    -0.198693826072E+03    0.28776E-04   -0.18300E-05  7032   0.125E-02    0.949E-02
RMM:  32    -0.198693817953E+03    0.81184E-05   -0.12215E-05  6920   0.925E-03    0.716E-02
RMM:  33    -0.198693813159E+03    0.47940E-05   -0.44950E-06  6946   0.576E-03    0.501E-02
RMM:  34    -0.198693809627E+03    0.35325E-05   -0.46681E-06  6940   0.567E-03    0.244E-02
RMM:  35    -0.198693809035E+03    0.59179E-06   -0.21997E-06  6911   0.404E-03    0.988E-03
RMM:  36    -0.198693808750E+03    0.28510E-06   -0.57180E-07  5786   0.207E-03    0.423E-03
RMM:  37    -0.198693808713E+03    0.37284E-07   -0.15159E-07  4298   0.125E-03
   1 F= -.19869381E+03 E0= -.19869574E+03  d E =-.198694E+03  mag=     0.4252
       N       E                     dE             d eps       ncg     rms          rms(c)
DAV:   1    -0.317582786910E+03   -0.11889E+03   -0.98808E+03  7128   0.325E+02    0.187E+02
RMM:   2    -0.279544469151E+03    0.38038E+02   -0.78537E+02  6960   0.775E+01    0.138E+02
RMM:   3    -0.274053138628E+03    0.54913E+01   -0.15818E+02  7190   0.337E+01    0.144E+02
RMM:   4    -0.187532616893E+03    0.86521E+02   -0.48620E+01  6984   0.187E+01    0.958E+01
RMM:   5    -0.199341148665E+03   -0.11809E+02   -0.31837E+01  7032   0.135E+01    0.111E+02
RMM:   6    -0.199078985850E+03    0.26216E+00   -0.11816E+01  7091   0.887E+00    0.983E+01
RMM:   7    -0.180343354173E+03    0.18736E+02   -0.69057E+00  6976   0.664E+00    0.899E+01
RMM:   8    -0.184298131950E+03   -0.39548E+01   -0.29550E+01  7007   0.128E+01    0.717E+01
RMM:   9    -0.170091101680E+03    0.14207E+02   -0.13437E+01  7005   0.908E+00    0.505E+01
RMM:  10    -0.168093281710E+03    0.19978E+01   -0.66706E+00  7032   0.633E+00    0.458E+01
RMM:  11    -0.167213269688E+03    0.88001E+00   -0.37208E+00  7434   0.417E+00    0.342E+01
RMM:  12    -0.165679013025E+03    0.15343E+01   -0.22675E+00  6965   0.366E+00    0.274E+01
RMM:  13    -0.164090241707E+03    0.15888E+01   -0.15165E+00  7003   0.309E+00    0.222E+01
RMM:  14    -0.163339148586E+03    0.75109E+00   -0.42693E-01  6982   0.168E+00    0.168E+01
RMM:  15    -0.163124438486E+03    0.21471E+00   -0.17791E-01  7200   0.998E-01    0.145E+01
RMM:  16    -0.163145740343E+03   -0.21302E-01   -0.17298E-01  7016   0.928E-01    0.142E+01
RMM:  17    -0.163013081194E+03    0.13266E+00   -0.17474E-01  6915   0.103E+00    0.113E+01
RMM:  18    -0.162626381791E+03    0.38670E+00   -0.32244E-01  6985   0.127E+00    0.714E+00
RMM:  19    -0.162465073198E+03    0.16131E+00   -0.99494E-02  6981   0.821E-01    0.570E+00
RMM:  20    -0.162417810959E+03    0.47262E-01   -0.29451E-02  7590   0.403E-01    0.437E+00
RMM:  21    -0.162415987802E+03    0.18232E-02   -0.11129E-02  7355   0.224E-01    0.422E+00
RMM:  22    -0.162393628022E+03    0.22360E-01   -0.29968E-02  6951   0.403E-01    0.226E+00
RMM:  23    -0.162385124664E+03    0.85034E-02   -0.10027E-02  7131   0.260E-01    0.184E+00
RMM:  24    -0.162391158868E+03   -0.60342E-02   -0.48327E-03  7196   0.165E-01    0.181E+00
RMM:  25    -0.162386559842E+03    0.45990E-02   -0.17243E-03  6940   0.138E-01    0.190E+00
RMM:  26    -0.162381629343E+03    0.49305E-02   -0.10927E-03  6936   0.831E-02    0.185E+00
RMM:  27    -0.162380238752E+03    0.13906E-02   -0.57379E-04  6936   0.597E-02    0.179E+00
RMM:  28    -0.162383678406E+03   -0.34397E-02   -0.20889E-03  6912   0.119E-01    0.170E+00
RMM:  29    -0.162385389498E+03   -0.17111E-02   -0.14454E-03  6914   0.938E-02    0.152E+00
RMM:  30    -0.162377504626E+03    0.78849E-02   -0.40060E-03  6912   0.184E-01    0.155E+00
RMM:  31    -0.162375501599E+03    0.20030E-02   -0.14156E-03  6915   0.903E-02    0.149E+00
RMM:  32    -0.162377627465E+03   -0.21259E-02   -0.40346E-03  6912   0.165E-01    0.119E+00
RMM:  33    -0.162379191514E+03   -0.15640E-02   -0.61168E-04  6941   0.933E-02    0.120E+00
RMM:  34    -0.162372236196E+03    0.69553E-02   -0.75621E-03  6920   0.226E-01    0.121E+00
RMM:  35    -0.162366962727E+03    0.52735E-02   -0.73788E-03  6917   0.202E-01    0.104E+00
RMM:  36    -0.162366735332E+03    0.22740E-03   -0.38385E-03  6989   0.160E-01    0.841E-01
RMM:  37    -0.162367519181E+03   -0.78385E-03   -0.21708E-03  6982   0.119E-01    0.655E-01
RMM:  38    -0.162368865148E+03   -0.13460E-02   -0.46104E-04  7218   0.684E-02    0.653E-01
RMM:  39    -0.162364405463E+03    0.44597E-02   -0.38773E-03  6912   0.160E-01    0.625E-01
RMM:  40    -0.162365809178E+03   -0.14037E-02   -0.47099E-03  6916   0.159E-01    0.673E-01
RMM:  41    -0.162368498293E+03   -0.26891E-02   -0.10534E-03  6964   0.106E-01    0.665E-01
RMM:  42    -0.162367174631E+03    0.13237E-02   -0.18163E-03  6912   0.123E-01    0.578E-01
RMM:  43    -0.162367177930E+03   -0.32990E-05   -0.12607E-03  6912   0.856E-02    0.525E-01
RMM:  44    -0.162367903818E+03   -0.72589E-03   -0.38209E-04  6914   0.661E-02    0.481E-01
RMM:  45    -0.162368071327E+03   -0.16751E-03   -0.51556E-05  7191   0.220E-02    0.483E-01
RMM:  46    -0.162368072748E+03   -0.14206E-05   -0.73882E-05  6914   0.214E-02    0.498E-01
RMM:  47    -0.162367951258E+03    0.12149E-03   -0.72237E-04  6912   0.681E-02    0.388E-01
RMM:  48    -0.162368067936E+03   -0.11668E-03   -0.87096E-04  6912   0.850E-02    0.448E-01
RMM:  49    -0.162367810777E+03    0.25716E-03   -0.30277E-04  6927   0.466E-02    0.392E-01
RMM:  50    -0.162367888017E+03   -0.77240E-04   -0.11941E-04  6922   0.341E-02    0.358E-01
RMM:  51    -0.162367907858E+03   -0.19841E-04   -0.21319E-04  6912   0.402E-02    0.310E-01
RMM:  52    -0.162367770316E+03    0.13754E-03   -0.12495E-03  6912   0.877E-02    0.189E-01
RMM:  53    -0.162368284700E+03   -0.51438E-03   -0.26670E-04  6912   0.592E-02    0.183E-01
RMM:  54    -0.162368287005E+03   -0.23051E-05   -0.34917E-05  7607   0.180E-02    0.186E-01
RMM:  55    -0.162368316005E+03   -0.29000E-04   -0.63427E-05  6916   0.216E-02    0.181E-01
RMM:  56    -0.162368223068E+03    0.92937E-04   -0.25710E-05  6900   0.182E-02    0.182E-01
RMM:  57    -0.162368196811E+03    0.26257E-04   -0.64066E-05  6903   0.211E-02    0.171E-01
RMM:  58    -0.162367976935E+03    0.21988E-03   -0.24827E-04  6912   0.443E-02    0.148E-01
RMM:  59    -0.162367798052E+03    0.17888E-03   -0.55271E-04  6912   0.583E-02    0.130E-01
RMM:  60    -0.162367952044E+03   -0.15399E-03   -0.23828E-04  6913   0.531E-02    0.116E-01
RMM:  61    -0.162367902675E+03    0.49369E-04   -0.22854E-04  6912   0.419E-02    0.977E-02
RMM:  62    -0.162368031008E+03   -0.12833E-03   -0.12211E-04  6912   0.357E-02    0.685E-02
RMM:  63    -0.162368048109E+03   -0.17101E-04   -0.36797E-05  6980   0.158E-02    0.537E-02
RMM:  64    -0.162368059183E+03   -0.11074E-04   -0.37305E-05  6914   0.156E-02    0.551E-02
RMM:  65    -0.162368097863E+03   -0.38680E-04   -0.59154E-05  6920   0.183E-02    0.450E-02
RMM:  66    -0.162368142649E+03   -0.44786E-04   -0.52467E-05  6988   0.172E-02    0.451E-02
RMM:  67    -0.162368169131E+03   -0.26482E-04   -0.22793E-05  7389   0.118E-02    0.407E-02
RMM:  68    -0.162368193651E+03   -0.24520E-04   -0.54571E-05  6875   0.170E-02    0.397E-02
RMM:  69    -0.162368222718E+03   -0.29067E-04   -0.26578E-05  7050   0.119E-02    0.384E-02
RMM:  70    -0.162368247655E+03   -0.24937E-04   -0.92186E-05  6880   0.218E-02    0.384E-02
RMM:  71    -0.162368287193E+03   -0.39539E-04   -0.44209E-05  7066   0.155E-02    0.334E-02
RMM:  72    -0.162368293468E+03   -0.62749E-05   -0.12203E-05  6914   0.109E-02    0.325E-02
RMM:  73    -0.162368314163E+03   -0.20694E-04   -0.12525E-05  6647   0.799E-03    0.345E-02
RMM:  74    -0.162368317669E+03   -0.35060E-05   -0.43635E-06  6887   0.591E-03    0.337E-02
RMM:  75    -0.162368317187E+03    0.48191E-06   -0.97931E-07  6691   0.274E-03    0.342E-02
RMM:  76    -0.162368320435E+03   -0.32485E-05   -0.61063E-07  6020   0.196E-03    0.336E-02
RMM:  77    -0.162368324194E+03   -0.37583E-05   -0.27106E-06  6657   0.409E-03    0.338E-02
RMM:  78    -0.162368337439E+03   -0.13245E-04   -0.68696E-06  6756   0.689E-03    0.324E-02
RMM:  79    -0.162368337280E+03    0.15857E-06   -0.81638E-07  6314   0.340E-03    0.328E-02
RMM:  80    -0.162368305007E+03    0.32274E-04   -0.17370E-05  6803   0.107E-02
   2 F= -.16236831E+03 E0= -.16235771E+03  d E =0.363255E+02  mag=    -0.2981
       N       E                     dE             d eps       ncg     rms          rms(c)
DAV:   1    -0.306446002685E+03   -0.14408E+03   -0.54651E+03  6912   0.258E+02    0.106E+02
RMM:   2    -0.226802479498E+03    0.79644E+02   -0.31288E+02  6912   0.525E+01    0.517E+01
RMM:   3    -0.234592800646E+03   -0.77903E+01   -0.76158E+01  6952   0.284E+01    0.949E+01
RMM:   4    -0.212822880777E+03    0.21770E+02   -0.82990E+00  6944   0.871E+00    0.219E+01
RMM:   5    -0.217071276544E+03   -0.42484E+01   -0.11436E+01  6957   0.882E+00    0.305E+01
RMM:   6    -0.209636176500E+03    0.74351E+01   -0.26808E+00  7008   0.429E+00    0.185E+01
RMM:   7    -0.208928182644E+03    0.70799E+00   -0.25814E+00  6939   0.405E+00    0.139E+01
RMM:   8    -0.208674664080E+03    0.25352E+00   -0.11176E+00  7108   0.255E+00    0.127E+01
RMM:   9    -0.207378611918E+03    0.12961E+01   -0.93695E-01  7037   0.236E+00    0.695E+00
RMM:  10    -0.207181693349E+03    0.19692E+00   -0.42829E-01  7134   0.175E+00    0.666E+00
RMM:  11    -0.207079463867E+03    0.10223E+00   -0.13230E-01  7567   0.931E-01    0.434E+00
RMM:  12    -0.207152553881E+03   -0.73090E-01   -0.63583E-02  7538   0.630E-01    0.419E+00
RMM:  13    -0.207088353418E+03    0.64200E-01   -0.38118E-02  7460   0.457E-01    0.362E+00
RMM:  14    -0.207082435508E+03    0.59179E-02   -0.20709E-02  7282   0.395E-01    0.197E+00
RMM:  15    -0.207076986999E+03    0.54485E-02   -0.47653E-03  8409   0.163E-01    0.176E+00
RMM:  16    -0.207078422208E+03   -0.14352E-02   -0.26394E-03  8171   0.112E-01    0.168E+00
RMM:  17    -0.207078194169E+03    0.22804E-03   -0.31861E-03  7165   0.123E-01    0.129E+00
RMM:  18    -0.207078280810E+03   -0.86642E-04   -0.53728E-04  8070   0.509E-02    0.118E+00
RMM:  19    -0.207077452484E+03    0.82833E-03   -0.20385E-04  8119   0.274E-02    0.122E+00
RMM:  20    -0.207077804441E+03   -0.35196E-03   -0.52160E-05  8661   0.130E-02    0.121E+00
RMM:  21    -0.207075350927E+03    0.24535E-02   -0.22473E-03  6912   0.867E-02    0.121E+00
RMM:  22    -0.207074042576E+03    0.13084E-02   -0.11275E-03  6912   0.728E-02    0.965E-01
RMM:  23    -0.207073812154E+03    0.23042E-03   -0.27823E-04  6917   0.410E-02    0.747E-01
RMM:  24    -0.207073149112E+03    0.66304E-03   -0.32242E-04  6916   0.425E-02    0.727E-01
RMM:  25    -0.207072799752E+03    0.34936E-03   -0.11106E-04  6964   0.276E-02    0.557E-01
RMM:  26    -0.207072469050E+03    0.33070E-03   -0.23406E-04  6921   0.349E-02    0.312E-01
RMM:  27    -0.207072345223E+03    0.12383E-03   -0.39867E-05  7247   0.178E-02    0.233E-01
RMM:  28    -0.207072215564E+03    0.12966E-03   -0.58894E-05  6968   0.165E-02    0.143E-01
RMM:  29    -0.207072173697E+03    0.41867E-04   -0.39419E-05  6961   0.158E-02    0.380E-02
RMM:  30    -0.207072171107E+03    0.25894E-05   -0.92757E-06  7157   0.755E-03    0.481E-02
RMM:  31    -0.207072166908E+03    0.41995E-05   -0.30941E-06  7426   0.396E-03    0.207E-02
RMM:  32    -0.207072165909E+03    0.99903E-06   -0.83237E-07  6443   0.224E-03    0.117E-02
RMM:  33    -0.207072165275E+03    0.63406E-06   -0.36968E-07  5150   0.148E-03    0.811E-03
RMM:  34    -0.207072165170E+03    0.10437E-06   -0.18371E-07  4310   0.117E-03    0.453E-03
RMM:  35    -0.207072165169E+03    0.88039E-09   -0.51726E-08  4163   0.787E-04
   3 F= -.20707217E+03 E0= -.20707068E+03  d E =-.837836E+01  mag=    -0.0133
       N       E                     dE             d eps       ncg     rms          rms(c)
DAV:   1    -0.207810372009E+03   -0.73821E+00   -0.22056E+01  7344   0.168E+01    0.627E+00
RMM:   2    -0.207563568210E+03    0.24680E+00   -0.98082E-01  6936   0.308E+00    0.519E+00
RMM:   3    -0.207538098447E+03    0.25470E-01   -0.14418E-01  6954   0.115E+00    0.471E+00
RMM:   4    -0.207605421556E+03   -0.67323E-01   -0.12867E-01  6912   0.959E-01    0.588E+00
RMM:   5    -0.207788137710E+03   -0.18272E+00   -0.12328E-01  6920   0.970E-01    0.792E+00
RMM:   6    -0.207454906733E+03    0.33323E+00   -0.66814E-02  6936   0.746E-01    0.245E+00
RMM:   7    -0.207419161306E+03    0.35745E-01   -0.26803E-02  6968   0.466E-01    0.120E+00
RMM:   8    -0.207418811914E+03    0.34939E-03   -0.12170E-02  6955   0.285E-01    0.114E+00
RMM:   9    -0.207411958291E+03    0.68536E-02   -0.47883E-03  6950   0.186E-01    0.495E-01
RMM:  10    -0.207412094771E+03   -0.13648E-03   -0.29979E-03  6956   0.150E-01    0.561E-01
RMM:  11    -0.207410446314E+03    0.16485E-02   -0.10617E-03  6988   0.922E-02    0.194E-01
RMM:  12    -0.207410361647E+03    0.84667E-04   -0.18712E-04  7105   0.387E-02    0.175E-01
RMM:  13    -0.207410272121E+03    0.89526E-04   -0.10784E-04  7080   0.257E-02    0.980E-02
RMM:  14    -0.207410341446E+03   -0.69325E-04   -0.88889E-05  7162   0.218E-02    0.825E-02
RMM:  15    -0.207410375600E+03   -0.34154E-04   -0.12242E-05  7869   0.852E-03    0.823E-02
RMM:  16    -0.207410277911E+03    0.97689E-04   -0.38806E-05  6953   0.121E-02    0.639E-02
RMM:  17    -0.207410209748E+03    0.68163E-04   -0.70238E-05  6912   0.166E-02    0.336E-02
RMM:  18    -0.207410202787E+03    0.69613E-05   -0.92925E-06  6930   0.759E-03    0.238E-02
RMM:  19    -0.207410199795E+03    0.29921E-05   -0.41505E-06  6977   0.512E-03    0.162E-02
RMM:  20    -0.207410199391E+03    0.40338E-06   -0.16311E-06  6881   0.326E-03    0.118E-02
RMM:  21    -0.207410198801E+03    0.58985E-06   -0.50583E-07  5467   0.181E-03    0.638E-03
RMM:  22    -0.207410198756E+03    0.45602E-07   -0.19980E-07  4381   0.133E-03
   4 F= -.20741020E+03 E0= -.20740933E+03  d E =-.871639E+01  mag=    -0.0050
       N       E                     dE             d eps       ncg     rms          rms(c)
DAV:   1    -0.207465663174E+03   -0.55464E-01   -0.19621E+00  7344   0.500E+00    0.192E+00
RMM:   2    -0.207448500619E+03    0.17163E-01   -0.87246E-02  6952   0.921E-01    0.185E+00
RMM:   3    -0.207441011766E+03    0.74889E-02   -0.10068E-02  6960   0.298E-01    0.142E+00
RMM:   4    -0.207451799490E+03   -0.10788E-01   -0.14333E-02  6912   0.317E-01    0.197E+00
RMM:   5    -0.207443504908E+03    0.82946E-02   -0.12902E-02  6936   0.339E-01    0.149E+00
RMM:   6    -0.207433907207E+03    0.95977E-02   -0.31362E-03  6952   0.167E-01    0.786E-01
RMM:   7    -0.207431872956E+03    0.20343E-02   -0.22271E-03  6974   0.128E-01    0.494E-01
RMM:   8    -0.207430893440E+03    0.97952E-03   -0.10752E-03  6950   0.928E-02    0.268E-01
RMM:   9    -0.207430475246E+03    0.41819E-03   -0.40469E-04  6964   0.577E-02    0.127E-01
RMM:  10    -0.207430465235E+03    0.10011E-04   -0.13085E-04  6999   0.309E-02    0.119E-01
RMM:  11    -0.207430391338E+03    0.73896E-04   -0.45802E-05  7032   0.180E-02    0.452E-02
RMM:  12    -0.207430390872E+03    0.46662E-06   -0.12011E-05  7094   0.916E-03    0.394E-02
RMM:  13    -0.207430392705E+03   -0.18334E-05   -0.55060E-06  7156   0.562E-03    0.272E-02
RMM:  14    -0.207430394037E+03   -0.13321E-05   -0.69707E-07  5764   0.194E-03    0.274E-02
RMM:  15    -0.207430389966E+03    0.40709E-05   -0.96170E-07  6253   0.202E-03    0.248E-02
RMM:  16    -0.207430386170E+03    0.37965E-05   -0.39006E-06  6912   0.468E-03    0.240E-02
RMM:  17    -0.207430381044E+03    0.51262E-05   -0.65373E-06  6912   0.539E-03    0.194E-02
RMM:  18    -0.207430380878E+03    0.16533E-06   -0.65390E-07  5676   0.222E-03    0.186E-02
RMM:  19    -0.207430380590E+03    0.28812E-06   -0.21542E-07  4352   0.140E-03    0.144E-02
RMM:  20    -0.207430380307E+03    0.28338E-06   -0.19109E-07  4235   0.133E-03    0.869E-03
RMM:  21    -0.207430380256E+03    0.50684E-07   -0.92986E-08  4077   0.926E-04
   5 F= -.20743038E+03 E0= -.20742969E+03  d E =-.873657E+01  mag=    -0.0016
       N       E                     dE             d eps       ncg     rms          rms(c)
DAV:   1    -0.210394270602E+03   -0.29639E+01   -0.33624E+02  7040   0.564E+01    0.115E+01
RMM:   2    -0.210812390403E+03   -0.41812E+00   -0.12332E+01  6912   0.110E+01    0.148E+01
RMM:   3    -0.209147077592E+03    0.16653E+01   -0.12884E+00  6962   0.353E+00    0.624E+00
RMM:   4    -0.209295308281E+03   -0.14823E+00   -0.81238E-01  6940   0.229E+00    0.954E+00
RMM:   5    -0.208947531441E+03    0.34778E+00   -0.29908E-01  6952   0.144E+00    0.668E+00
RMM:   6    -0.208853865186E+03    0.93666E-01   -0.12802E-01  6980   0.958E-01    0.555E+00
RMM:   7    -0.208745308949E+03    0.10856E+00   -0.11924E-01  6967   0.889E-01    0.358E+00
RMM:   8    -0.208682426844E+03    0.62882E-01   -0.40185E-02  6976   0.535E-01    0.178E+00
RMM:   9    -0.208667796126E+03    0.14631E-01   -0.19406E-02  6951   0.363E-01    0.115E+00
RMM:  10    -0.208662927569E+03    0.48686E-02   -0.56498E-03  6983   0.202E-01    0.567E-01
RMM:  11    -0.208663338530E+03   -0.41096E-03   -0.23095E-03  6988   0.128E-01    0.491E-01
RMM:  12    -0.208663015589E+03    0.32294E-03   -0.11030E-03  6986   0.869E-02    0.214E-01
RMM:  13    -0.208663585634E+03   -0.57005E-03   -0.64447E-04  7011   0.617E-02    0.233E-01
RMM:  14    -0.208663401176E+03    0.18446E-03   -0.25296E-04  7006   0.391E-02    0.858E-02
RMM:  15    -0.208663390803E+03    0.10374E-04   -0.91302E-05  7136   0.231E-02    0.843E-02
RMM:  16    -0.208663345789E+03    0.45014E-04   -0.31422E-05  7027   0.134E-02    0.377E-02
RMM:  17    -0.208663316797E+03    0.28991E-04   -0.16056E-05  7097   0.947E-03    0.234E-02
RMM:  18    -0.208663304248E+03    0.12549E-04   -0.67712E-06  6993   0.607E-03    0.201E-02
RMM:  19    -0.208663291948E+03    0.12301E-04   -0.63157E-06  6941   0.584E-03    0.901E-03
RMM:  20    -0.208663286004E+03    0.59437E-05   -0.38663E-06  6884   0.412E-03    0.421E-03
RMM:  21    -0.208663284790E+03    0.12141E-05   -0.13609E-06  6397   0.232E-03    0.225E-03
RMM:  22    -0.208663284656E+03    0.13405E-06   -0.23227E-07  4667   0.102E-03    0.152E-03
RMM:  23    -0.208663284633E+03    0.22663E-07   -0.67364E-08  4218   0.702E-04
   6 F= -.20866328E+03 E0= -.20866167E+03  d E =-.123290E+01  mag=    -0.0008
       N       E                     dE             d eps       ncg     rms          rms(c)
DAV:   1    -0.208673133156E+03   -0.98485E-02   -0.10791E+00  7296   0.321E+00    0.646E-01
RMM:   2    -0.208673640849E+03   -0.50769E-03   -0.35674E-02  6912   0.607E-01    0.979E-01
RMM:   3    -0.208669044592E+03    0.45963E-02   -0.38486E-03  6988   0.191E-01    0.458E-01
RMM:   4    -0.208671682978E+03   -0.26384E-02   -0.22337E-03  6938   0.123E-01    0.886E-01
RMM:   5    -0.208668529260E+03    0.31537E-02   -0.12930E-03  6928   0.960E-02    0.496E-01
RMM:   6    -0.208667864573E+03    0.66469E-03   -0.12693E-03  6932   0.974E-02    0.347E-01
RMM:   7    -0.208667239217E+03    0.62536E-03   -0.40060E-04  6964   0.538E-02    0.129E-01
RMM:   8    -0.208667184194E+03    0.55022E-04   -0.14672E-04  6986   0.317E-02    0.102E-01
RMM:   9    -0.208667134549E+03    0.49645E-04   -0.54289E-05  7021   0.191E-02    0.564E-02
RMM:  10    -0.208667119403E+03    0.15146E-04   -0.15169E-05  7060   0.105E-02    0.274E-02
RMM:  11    -0.208667115713E+03    0.36900E-05   -0.49109E-06  7091   0.587E-03    0.154E-02
RMM:  12    -0.208667115416E+03    0.29705E-06   -0.18453E-06  6798   0.349E-03    0.133E-02
RMM:  13    -0.208667114948E+03    0.46798E-06   -0.12134E-06  6642   0.274E-03    0.849E-03
RMM:  14    -0.208667114771E+03    0.17675E-06   -0.68777E-07  6237   0.214E-03    0.491E-03
RMM:  15    -0.208667114593E+03    0.17844E-06   -0.17800E-07  4463   0.119E-03    0.259E-03
RMM:  16    -0.208667114540E+03    0.52725E-07   -0.76849E-08  4198   0.890E-04
   7 F= -.20866711E+03 E0= -.20866532E+03  d E =-.123673E+01  mag=    -0.0020
       N       E                     dE             d eps       ncg     rms          rms(c)
DAV:   1    -0.209608658175E+03   -0.94154E+00   -0.26604E+02  6912   0.489E+01    0.924E+00
RMM:   2    -0.211664524192E+03   -0.20559E+01   -0.10160E+01  6912   0.102E+01    0.150E+01
RMM:   3    -0.209462969996E+03    0.22016E+01   -0.12613E+00  6912   0.349E+00    0.585E+00
RMM:   4    -0.209465958235E+03   -0.29882E-02   -0.36775E-01  6968   0.158E+00    0.627E+00
RMM:   5    -0.209324513307E+03    0.14144E+00   -0.13964E-01  6918   0.979E-01    0.495E+00
RMM:   6    -0.209285682731E+03    0.38831E-01   -0.59481E-02  6938   0.655E-01    0.406E+00
RMM:   7    -0.209294241217E+03   -0.85585E-02   -0.88514E-02  6914   0.757E-01    0.375E+00
RMM:   8    -0.209213022698E+03    0.81219E-01   -0.48682E-02  6920   0.568E-01    0.140E+00
RMM:   9    -0.209207955617E+03    0.50671E-02   -0.15050E-02  6960   0.327E-01    0.117E+00
RMM:  10    -0.209201524219E+03    0.64314E-02   -0.51081E-03  7060   0.184E-01    0.388E-01
RMM:  11    -0.209201859320E+03   -0.33510E-03   -0.14164E-03  7020   0.100E-01    0.350E-01
RMM:  12    -0.209201669187E+03    0.19013E-03   -0.54081E-04  6990   0.606E-02    0.154E-01
RMM:  13    -0.209201792178E+03   -0.12299E-03   -0.26748E-04  7018   0.409E-02    0.135E-01
RMM:  14    -0.209201680554E+03    0.11162E-03   -0.10673E-04  6949   0.271E-02    0.842E-02
RMM:  15    -0.209201635060E+03    0.45494E-04   -0.43865E-05  7044   0.163E-02    0.525E-02
RMM:  16    -0.209201597983E+03    0.37077E-04   -0.21995E-05  6986   0.115E-02    0.233E-02
RMM:  17    -0.209201570852E+03    0.27131E-04   -0.12008E-05  7006   0.762E-03    0.127E-02
RMM:  18    -0.209201556528E+03    0.14323E-04   -0.75542E-06  6972   0.573E-03    0.837E-03
RMM:  19    -0.209201552739E+03    0.37891E-05   -0.28730E-06  6676   0.362E-03    0.906E-03
RMM:  20    -0.209201550239E+03    0.25007E-05   -0.14165E-06  6243   0.251E-03    0.357E-03
RMM:  21    -0.209201549523E+03    0.71549E-06   -0.66143E-07  5841   0.165E-03    0.246E-03
RMM:  22    -0.209201549416E+03    0.10747E-06   -0.13033E-07  4309   0.873E-04    0.127E-03
RMM:  23    -0.209201549403E+03    0.13099E-07   -0.41152E-08  4163   0.565E-04
   8 F= -.20920155E+03 E0= -.20919725E+03  d E =-.534435E+00  mag=    -0.0001
       N       E                     dE             d eps       ncg     rms          rms(c)
DAV:   1    -0.209201691537E+03   -0.14212E-03   -0.30206E-02  7296   0.521E-01    0.101E-01
RMM:   2    -0.209201987601E+03   -0.29606E-03   -0.10877E-03  6912   0.107E-01    0.228E-01
RMM:   3    -0.209201661637E+03    0.32596E-03   -0.15335E-04  6928   0.376E-02    0.720E-02
RMM:   4    -0.209201677698E+03   -0.16061E-04   -0.35223E-05  6938   0.166E-02    0.917E-02
RMM:   5    -0.209201649760E+03    0.27938E-04   -0.19682E-05  6918   0.116E-02    0.631E-02
RMM:   6    -0.209201642730E+03    0.70292E-05   -0.15546E-05  6912   0.105E-02    0.550E-02
RMM:   7    -0.209201631222E+03    0.11509E-04   -0.88468E-06  6940   0.766E-03    0.256E-02
RMM:   8    -0.209201626997E+03    0.42247E-05   -0.37564E-06  6936   0.506E-03    0.877E-03
RMM:   9    -0.209201626621E+03    0.37622E-06   -0.11214E-06  6754   0.270E-03    0.482E-03
RMM:  10    -0.209201626652E+03   -0.30743E-07   -0.20936E-07  4521   0.148E-03
   9 F= -.20920163E+03 E0= -.20919730E+03  d E =-.534512E+00  mag=     0.0001
       N       E                     dE             d eps       ncg     rms          rms(c)
DAV:   1    -0.209575012299E+03   -0.37339E+00   -0.13832E+02  6912   0.341E+01    0.680E+00
RMM:   2    -0.211005786862E+03   -0.14308E+01   -0.55405E+00  6912   0.746E+00    0.126E+01
RMM:   3    -0.209620253595E+03    0.13855E+01   -0.72937E-01  6916   0.252E+00    0.393E+00
RMM:   4    -0.209620901153E+03   -0.64756E-03   -0.19903E-01  6938   0.119E+00    0.521E+00
RMM:   5    -0.209500430875E+03    0.12047E+00   -0.63663E-02  6926   0.673E-01    0.288E+00
RMM:   6    -0.209481808888E+03    0.18622E-01   -0.23283E-02  6964   0.420E-01    0.241E+00
RMM:   7    -0.209474616846E+03    0.71920E-02   -0.29616E-02  6959   0.427E-01    0.190E+00
RMM:   8    -0.209458172882E+03    0.16444E-01   -0.14877E-02  6936   0.309E-01    0.980E-01
RMM:   9    -0.209453117201E+03    0.50557E-02   -0.50547E-03  6962   0.193E-01    0.397E-01
RMM:  10    -0.209452489582E+03    0.62762E-03   -0.13399E-03  7077   0.983E-02    0.291E-01
RMM:  11    -0.209452197884E+03    0.29170E-03   -0.37108E-04  7076   0.495E-02    0.187E-01
RMM:  12    -0.209452046580E+03    0.15130E-03   -0.15430E-04  7004   0.319E-02    0.930E-02
RMM:  13    -0.209452009480E+03    0.37099E-04   -0.11014E-04  6956   0.279E-02    0.740E-02
RMM:  14    -0.209451970843E+03    0.38637E-04   -0.46810E-05  6972   0.173E-02    0.477E-02
RMM:  15    -0.209451953852E+03    0.16992E-04   -0.18788E-05  7127   0.103E-02    0.309E-02
RMM:  16    -0.209451944392E+03    0.94598E-05   -0.65021E-06  6949   0.614E-03    0.169E-02
RMM:  17    -0.209451938019E+03    0.63726E-05   -0.31073E-06  7059   0.396E-03    0.735E-03
RMM:  18    -0.209451935533E+03    0.24856E-05   -0.15584E-06  6441   0.280E-03    0.774E-03
RMM:  19    -0.209451932962E+03    0.25714E-05   -0.13950E-06  6374   0.261E-03    0.305E-03
RMM:  20    -0.209451932044E+03    0.91783E-06   -0.69850E-07  5887   0.181E-03    0.170E-03
RMM:  21    -0.209451931864E+03    0.18052E-06   -0.15029E-07  4355   0.907E-04    0.101E-03
RMM:  22    -0.209451931831E+03    0.32693E-07   -0.41995E-08  4134   0.583E-04
  10 F= -.20945193E+03 E0= -.20944816E+03  d E =-.250305E+00  mag=     0.0003
       N       E                     dE             d eps       ncg     rms          rms(c)
DAV:   1    -0.209452299826E+03   -0.36796E-03   -0.11871E-01  7264   0.100E+00    0.192E-01
RMM:   2    -0.209453603878E+03   -0.13041E-02   -0.45568E-03  6912   0.216E-01    0.450E-01
RMM:   3    -0.209452344704E+03    0.12592E-02   -0.57994E-04  6940   0.710E-02    0.141E-01
RMM:   4    -0.209452387420E+03   -0.42716E-04   -0.13389E-04  6938   0.326E-02    0.185E-01
RMM:   5    -0.209452251283E+03    0.13614E-03   -0.78788E-05  6914   0.241E-02    0.108E-01
RMM:   6    -0.209452198642E+03    0.52641E-04   -0.40840E-05  6912   0.174E-02    0.524E-02
RMM:   7    -0.209452190545E+03    0.80972E-05   -0.25111E-05  6964   0.129E-02    0.400E-02
RMM:   8    -0.209452181134E+03    0.94106E-05   -0.88492E-06  6960   0.763E-03    0.159E-02
RMM:   9    -0.209452180219E+03    0.91522E-06   -0.31023E-06  6948   0.459E-03    0.164E-02
RMM:  10    -0.209452178769E+03    0.14498E-05   -0.10881E-06  6378   0.272E-03    0.709E-03
RMM:  11    -0.209452178340E+03    0.42848E-06   -0.30614E-07  4762   0.169E-03    0.474E-03
RMM:  12    -0.209452178144E+03    0.19687E-06   -0.12901E-07  4146   0.131E-03    0.339E-03
RMM:  13    -0.209452177999E+03    0.14479E-06   -0.72461E-08  4068   0.912E-04    0.276E-03
RMM:  14    -0.209452177899E+03    0.10018E-06   -0.44390E-08  3984   0.720E-04    0.154E-03
RMM:  15    -0.209452177847E+03    0.52014E-07   -0.21711E-08  3670   0.475E-04
  11 F= -.20945218E+03 E0= -.20944837E+03  d E =-.250551E+00  mag=     0.0003
       N       E                     dE             d eps       ncg     rms          rms(c)
DAV:   1    -0.209509946302E+03   -0.57768E-01   -0.11441E+02  6912   0.311E+01    0.390E+00
RMM:   2    -0.210019874637E+03   -0.50993E+00   -0.34263E+00  6912   0.595E+00    0.671E+00
RMM:   3    -0.209727987898E+03    0.29189E+00   -0.25939E-01  7064   0.166E+00    0.315E+00
RMM:   4    -0.209720860317E+03    0.71276E-02   -0.63438E-02  6996   0.673E-01    0.305E+00
RMM:   5    -0.209725190427E+03   -0.43301E-02   -0.24170E-02  6964   0.394E-01    0.314E+00
RMM:   6    -0.209696401640E+03    0.28789E-01   -0.19821E-02  6946   0.368E-01    0.188E+00
RMM:   7    -0.209696447349E+03   -0.45710E-04   -0.28856E-02  6930   0.435E-01    0.181E+00
RMM:   8    -0.209679057080E+03    0.17390E-01   -0.10889E-02  6960   0.269E-01    0.515E-01
RMM:   9    -0.209677243374E+03    0.18137E-02   -0.23001E-03  7002   0.128E-01    0.338E-01
RMM:  10    -0.209676524583E+03    0.71879E-03   -0.62084E-04  7084   0.619E-02    0.144E-01
RMM:  11    -0.209676451377E+03    0.73206E-04   -0.23088E-04  6985   0.374E-02    0.131E-01
RMM:  12    -0.209676388431E+03    0.62946E-04   -0.11283E-04  6972   0.266E-02    0.828E-02
RMM:  13    -0.209676371028E+03    0.17403E-04   -0.77799E-05  6966   0.219E-02    0.605E-02
RMM:  14    -0.209676351644E+03    0.19384E-04   -0.18079E-05  6964   0.106E-02    0.309E-02
RMM:  15    -0.209676347723E+03    0.39214E-05   -0.44827E-06  7088   0.522E-03    0.238E-02
RMM:  16    -0.209676344987E+03    0.27362E-05   -0.26358E-06  6933   0.390E-03    0.119E-02
RMM:  17    -0.209676344358E+03    0.62904E-06   -0.10727E-06  6460   0.257E-03    0.901E-03
RMM:  18    -0.209676343672E+03    0.68571E-06   -0.52838E-07  5742   0.176E-03    0.318E-03
RMM:  19    -0.209676343485E+03    0.18646E-06   -0.13614E-07  4279   0.104E-03    0.177E-03
RMM:  20    -0.209676343419E+03    0.66340E-07   -0.84156E-08  4170   0.755E-04
  12 F= -.20967634E+03 E0= -.20967260E+03  d E =-.224166E+00  mag=     0.0003
       N       E                     dE             d eps       ncg     rms          rms(c)
DAV:   1    -0.209669701268E+03    0.66422E-02   -0.23872E+01  6912   0.142E+01    0.177E+00
RMM:   2    -0.209778661358E+03   -0.10896E+00   -0.68628E-01  6912   0.267E+00    0.338E+00
RMM:   3    -0.209711565503E+03    0.67096E-01   -0.52488E-02  7046   0.748E-01    0.139E+00
RMM:   4    -0.209715876341E+03   -0.43108E-02   -0.12201E-02  7006   0.293E-01    0.170E+00
RMM:   5    -0.209709822928E+03    0.60534E-02   -0.53913E-03  6968   0.189E-01    0.133E+00
RMM:   6    -0.209706137128E+03    0.36858E-02   -0.59375E-03  6944   0.198E-01    0.886E-01
RMM:   7    -0.209703690922E+03    0.24462E-02   -0.53497E-03  6958   0.186E-01    0.627E-01
RMM:   8    -0.209701865719E+03    0.18252E-02   -0.17992E-03  6960   0.110E-01    0.255E-01
RMM:   9    -0.209701515074E+03    0.35064E-03   -0.43259E-04  6994   0.550E-02    0.157E-01
RMM:  10    -0.209701363926E+03    0.15115E-03   -0.12478E-04  7072   0.285E-02    0.649E-02
RMM:  11    -0.209701353036E+03    0.10891E-04   -0.49243E-05  7005   0.172E-02    0.591E-02
RMM:  12    -0.209701337055E+03    0.15981E-04   -0.27152E-05  6975   0.129E-02    0.335E-02
RMM:  13    -0.209701333708E+03    0.33466E-05   -0.12482E-05  6983   0.903E-03    0.233E-02
RMM:  14    -0.209701330444E+03    0.32636E-05   -0.29922E-06  6921   0.424E-03    0.120E-02
RMM:  15    -0.209701329528E+03    0.91662E-06   -0.87797E-07  6532   0.236E-03    0.607E-03
RMM:  16    -0.209701329183E+03    0.34457E-06   -0.50153E-07  5990   0.175E-03    0.372E-03
RMM:  17    -0.209701329077E+03    0.10580E-06   -0.20994E-07  4477   0.125E-03    0.319E-03
RMM:  18    -0.209701328976E+03    0.10106E-06   -0.10971E-07  4183   0.109E-03    0.119E-03
RMM:  19    -0.209701328955E+03    0.21531E-07   -0.48041E-08  4096   0.696E-04
  13 F= -.20970133E+03 E0= -.20969737E+03  d E =-.249151E+00  mag=     0.0005
       N       E                     dE             d eps       ncg     rms          rms(c)
DAV:   1    -0.209859781607E+03   -0.15845E+00   -0.12595E+02  6912   0.347E+01    0.551E+00
RMM:   2    -0.209926079588E+03   -0.66298E-01   -0.42774E+00  6912   0.627E+00    0.397E+00
RMM:   3    -0.210176721650E+03   -0.25064E+00   -0.32824E-01  6976   0.198E+00    0.713E+00
RMM:   4    -0.209890498206E+03    0.28622E+00   -0.13037E-01  6952   0.104E+00    0.346E+00
RMM:   5    -0.209840465126E+03    0.50033E-01   -0.60571E-02  6982   0.679E-01    0.250E+00
RMM:   6    -0.209844397633E+03   -0.39325E-02   -0.37853E-02  7014   0.498E-01    0.226E+00
RMM:   7    -0.209822634097E+03    0.21764E-01   -0.18312E-02  6994   0.343E-01    0.112E+00
RMM:   8    -0.209822562169E+03    0.71927E-04   -0.10313E-02  6988   0.260E-01    0.976E-01
RMM:   9    -0.209817051255E+03    0.55109E-02   -0.41457E-03  7004   0.169E-01    0.424E-01
RMM:  10    -0.209815867657E+03    0.11836E-02   -0.72709E-04  7044   0.768E-02    0.187E-01
RMM:  11    -0.209815703286E+03    0.16437E-03   -0.24886E-04  7227   0.394E-02    0.122E-01
RMM:  12    -0.209815700614E+03    0.26714E-05   -0.97037E-05  7141   0.257E-02    0.113E-01
RMM:  13    -0.209815656404E+03    0.44210E-04   -0.60331E-05  7008   0.194E-02    0.625E-02
RMM:  14    -0.209815644211E+03    0.12193E-04   -0.27120E-05  7042   0.137E-02    0.450E-02
RMM:  15    -0.209815633017E+03    0.11194E-04   -0.95999E-06  7251   0.767E-03    0.212E-02
RMM:  16    -0.209815629981E+03    0.30365E-05   -0.33088E-06  7098   0.463E-03    0.104E-02
RMM:  17    -0.209815629190E+03    0.79011E-06   -0.16349E-06  7347   0.288E-03    0.761E-03
RMM:  18    -0.209815628831E+03    0.35940E-06   -0.75754E-07  6426   0.210E-03    0.531E-03
RMM:  19    -0.209815628513E+03    0.31800E-06   -0.30007E-07  4942   0.136E-03    0.189E-03
RMM:  20    -0.209815628418E+03    0.94740E-07   -0.75212E-08  4187   0.882E-04
  14 F= -.20981563E+03 E0= -.20981095E+03  d E =-.114299E+00  mag=     0.0003
       N       E                     dE             d eps       ncg     rms          rms(c)
DAV:   1    -0.209822016014E+03   -0.63875E-02   -0.34457E+00  7024   0.575E+00    0.857E-01
RMM:   2    -0.209823769405E+03   -0.17534E-02   -0.10289E-01  6912   0.992E-01    0.710E-01
RMM:   3    -0.209828595783E+03   -0.48264E-02   -0.77371E-03  7024   0.305E-01    0.119E+00
RMM:   4    -0.209823199050E+03    0.53967E-02   -0.36230E-03  6928   0.173E-01    0.708E-01
RMM:   5    -0.209821176547E+03    0.20225E-02   -0.18666E-03  6952   0.122E-01    0.455E-01
RMM:   6    -0.209820966398E+03    0.21015E-03   -0.90765E-04  6976   0.801E-02    0.304E-01
RMM:   7    -0.209820672672E+03    0.29373E-03   -0.53031E-04  6980   0.591E-02    0.205E-01
RMM:   8    -0.209820623503E+03    0.49169E-04   -0.27772E-04  6989   0.429E-02    0.162E-01
RMM:   9    -0.209820445399E+03    0.17810E-03   -0.10137E-04  7000   0.264E-02    0.529E-02
RMM:  10    -0.209820428240E+03    0.17159E-04   -0.16370E-05  7087   0.112E-02    0.311E-02
RMM:  11    -0.209820423023E+03    0.52168E-05   -0.57180E-06  7297   0.587E-03    0.174E-02
RMM:  12    -0.209820422553E+03    0.47043E-06   -0.26780E-06  7129   0.422E-03    0.170E-02
RMM:  13    -0.209820420193E+03    0.23592E-05   -0.13122E-06  6528   0.283E-03    0.642E-03
RMM:  14    -0.209820419874E+03    0.31938E-06   -0.39663E-07  5224   0.168E-03    0.474E-03
RMM:  15    -0.209820419638E+03    0.23636E-06   -0.13448E-07  4261   0.125E-03    0.235E-03
RMM:  16    -0.209820419534E+03    0.10340E-06   -0.61206E-08  4114   0.884E-04    0.142E-03
RMM:  17    -0.209820419427E+03    0.10684E-06   -0.42613E-08  4067   0.622E-04    0.103E-03
RMM:  18    -0.209820419371E+03    0.56383E-07   -0.23878E-08  3791   0.503E-04
  15 F= -.20982042E+03 E0= -.20981583E+03  d E =-.119090E+00  mag=     0.0002
       N       E                     dE             d eps       ncg     rms          rms(c)
DAV:   1    -0.209749469762E+03    0.70950E-01   -0.82028E+01  6912   0.272E+01    0.364E+00
RMM:   2    -0.209954535073E+03   -0.20507E+00   -0.22801E+00  6912   0.475E+00    0.340E+00
RMM:   3    -0.210003004412E+03   -0.48469E-01   -0.14583E-01  7166   0.131E+00    0.415E+00
RMM:   4    -0.209936841254E+03    0.66163E-01   -0.54625E-02  6914   0.642E-01    0.262E+00
RMM:   5    -0.209915529741E+03    0.21312E-01   -0.36797E-02  6914   0.529E-01    0.210E+00
RMM:   6    -0.209899625296E+03    0.15904E-01   -0.23418E-02  7010   0.412E-01    0.840E-01
RMM:   7    -0.209898001199E+03    0.16241E-02   -0.65425E-03  6984   0.216E-01    0.758E-01
RMM:   8    -0.209894410098E+03    0.35911E-02   -0.26452E-03  7028   0.133E-01    0.294E-01
RMM:   9    -0.209894364618E+03    0.45480E-04   -0.79006E-04  6986   0.809E-02    0.295E-01
RMM:  10    -0.209893952510E+03    0.41211E-03   -0.38397E-04  6960   0.543E-02    0.168E-01
RMM:  11    -0.209893823634E+03    0.12888E-03   -0.15614E-04  7008   0.341E-02    0.827E-02
RMM:  12    -0.209893799456E+03    0.24178E-04   -0.42714E-05  7311   0.170E-02    0.476E-02
RMM:  13    -0.209893789721E+03    0.97352E-05   -0.16549E-05  7145   0.100E-02    0.402E-02
RMM:  14    -0.209893783656E+03    0.60652E-05   -0.83430E-06  7350   0.705E-03    0.203E-02
RMM:  15    -0.209893781554E+03    0.21012E-05   -0.41969E-06  7237   0.537E-03    0.146E-02
RMM:  16    -0.209893780321E+03    0.12330E-05   -0.14103E-06  6930   0.296E-03    0.865E-03
RMM:  17    -0.209893779801E+03    0.52066E-06   -0.40133E-07  5396   0.159E-03    0.527E-03
RMM:  18    -0.209893779527E+03    0.27387E-06   -0.17281E-07  4536   0.122E-03    0.334E-03
RMM:  19    -0.209893779244E+03    0.28289E-06   -0.16776E-07  4277   0.112E-03    0.159E-03
RMM:  20    -0.209893779169E+03    0.75132E-07   -0.64340E-08  4124   0.831E-04
  16 F= -.20989378E+03 E0= -.20988900E+03  d E =-.733598E-01  mag=     0.0002
       N       E                     dE             d eps       ncg     rms          rms(c)
DAV:   1    -0.209893007990E+03    0.77125E-03   -0.21892E+00  7104   0.443E+00    0.626E-01
RMM:   2    -0.209898209672E+03   -0.52017E-02   -0.59590E-02  6912   0.776E-01    0.558E-01
RMM:   3    -0.209900266428E+03   -0.20568E-02   -0.40947E-03  7178   0.212E-01    0.813E-01
RMM:   4    -0.209898332093E+03    0.19343E-02   -0.15904E-03  6914   0.110E-01    0.542E-01
RMM:   5    -0.209897125759E+03    0.12063E-02   -0.10597E-03  6966   0.892E-02    0.314E-01
RMM:   6    -0.209896796093E+03    0.32967E-03   -0.61394E-04  6986   0.648E-02    0.130E-01
RMM:   7    -0.209896721807E+03    0.74285E-04   -0.16778E-04  6984   0.342E-02    0.103E-01
RMM:   8    -0.209896674196E+03    0.47611E-04   -0.50131E-05  7030   0.183E-02    0.651E-02
RMM:   9    -0.209896651069E+03    0.23127E-04   -0.19417E-05  7000   0.118E-02    0.268E-02
RMM:  10    -0.209896650746E+03    0.32347E-06   -0.10314E-05  6974   0.888E-03    0.230E-02
RMM:  11    -0.209896649079E+03    0.16668E-05   -0.26861E-06  6997   0.464E-03    0.130E-02
RMM:  12    -0.209896648706E+03    0.37322E-06   -0.11419E-06  6681   0.271E-03    0.858E-03
RMM:  13    -0.209896648735E+03   -0.28793E-07   -0.47115E-07  5494   0.178E-03
  17 F= -.20989665E+03 E0= -.20989187E+03  d E =-.762294E-01  mag=     0.0002
       N       E                     dE             d eps       ncg     rms          rms(c)
DAV:   1    -0.209895060263E+03    0.15884E-02   -0.48876E+01  6912   0.203E+01    0.297E+00
RMM:   2    -0.210053056247E+03   -0.15800E+00   -0.13175E+00  6912   0.387E+00    0.394E+00
RMM:   3    -0.209997954149E+03    0.55102E-01   -0.12761E-01  7174   0.107E+00    0.256E+00
RMM:   4    -0.209996267156E+03    0.16870E-02   -0.30482E-02  6947   0.473E-01    0.283E+00
RMM:   5    -0.209960268392E+03    0.35999E-01   -0.12110E-02  6982   0.295E-01    0.131E+00
RMM:   6    -0.209959991998E+03    0.27639E-03   -0.13934E-02  6944   0.296E-01    0.115E+00
RMM:   7    -0.209953814466E+03    0.61775E-02   -0.78546E-03  6968   0.228E-01    0.699E-01
RMM:   8    -0.209952567858E+03    0.12466E-02   -0.28438E-03  7004   0.141E-01    0.501E-01
RMM:   9    -0.209950888238E+03    0.16796E-02   -0.85848E-04  7020   0.779E-02    0.152E-01
RMM:  10    -0.209950768488E+03    0.11975E-03   -0.18141E-04  7050   0.364E-02    0.103E-01
RMM:  11    -0.209950722935E+03    0.45553E-04   -0.76457E-05  7020   0.216E-02    0.757E-02
RMM:  12    -0.209950698245E+03    0.24691E-04   -0.42130E-05  7006   0.163E-02    0.455E-02
RMM:  13    -0.209950683413E+03    0.14832E-04   -0.20557E-05  7013   0.110E-02    0.197E-02
RMM:  14    -0.209950679420E+03    0.39928E-05   -0.53382E-06  7071   0.582E-03    0.194E-02
RMM:  15    -0.209950676234E+03    0.31859E-05   -0.20784E-06  6892   0.338E-03    0.103E-02
RMM:  16    -0.209950674311E+03    0.19236E-05   -0.10585E-06  6455   0.259E-03    0.650E-03
RMM:  17    -0.209950672782E+03    0.15290E-05   -0.65611E-07  6077   0.188E-03    0.259E-03
RMM:  18    -0.209950672117E+03    0.66488E-06   -0.33852E-07  5076   0.130E-03    0.178E-03
RMM:  19    -0.209950671941E+03    0.17536E-06   -0.10514E-07  4203   0.891E-04    0.185E-03
RMM:  20    -0.209950671830E+03    0.11170E-06   -0.67259E-08  4111   0.773E-04    0.928E-04
RMM:  21    -0.209950671779E+03    0.51066E-07   -0.42641E-08  3836   0.542E-04
  18 F= -.20995067E+03 E0= -.20994594E+03  d E =-.540230E-01  mag=     0.0002
       N       E                     dE             d eps       ncg     rms          rms(c)
DAV:   1    -0.209950684302E+03   -0.12472E-04   -0.81802E-02  7296   0.832E-01    0.121E-01
RMM:   2    -0.209950962966E+03   -0.27866E-03   -0.22032E-03  6912   0.158E-01    0.167E-01
RMM:   3    -0.209950846199E+03    0.11677E-03   -0.21642E-04  7156   0.437E-02    0.103E-01
RMM:   4    -0.209950849842E+03   -0.36432E-05   -0.51544E-05  6932   0.197E-02    0.115E-01
RMM:   5    -0.209950789941E+03    0.59902E-04   -0.20368E-05  6966   0.122E-02    0.547E-02
RMM:   6    -0.209950788132E+03    0.18081E-05   -0.22552E-05  6942   0.120E-02    0.456E-02
RMM:   7    -0.209950778604E+03    0.95284E-05   -0.12949E-05  6956   0.930E-03    0.289E-02
RMM:   8    -0.209950776148E+03    0.24566E-05   -0.45443E-06  6924   0.565E-03    0.200E-02
RMM:   9    -0.209950773581E+03    0.25663E-05   -0.14296E-06  6588   0.316E-03    0.680E-03
RMM:  10    -0.209950773352E+03    0.22942E-06   -0.34736E-07  5055   0.168E-03    0.446E-03
RMM:  11    -0.209950773250E+03    0.10156E-06   -0.15628E-07  4134   0.133E-03    0.325E-03
RMM:  12    -0.209950773181E+03    0.68829E-07   -0.87171E-08  3947   0.104E-03
  19 F= -.20995077E+03 E0= -.20994603E+03  d E =-.541244E-01  mag=     0.0002
       N       E                     dE             d eps       ncg     rms          rms(c)
DAV:   1    -0.209996181188E+03   -0.45408E-01   -0.29629E+01  6912   0.162E+01    0.235E+00
RMM:   2    -0.210141672200E+03   -0.14549E+00   -0.86757E-01  6912   0.293E+00    0.437E+00
RMM:   3    -0.210017847827E+03    0.12382E+00   -0.88597E-02  7008   0.885E-01    0.175E+00
RMM:   4    -0.210013956826E+03    0.38910E-02   -0.29089E-02  6918   0.465E-01    0.190E+00
RMM:   5    -0.210000313808E+03    0.13643E-01   -0.10027E-02  6938   0.281E-01    0.125E+00
RMM:   6    -0.209996172353E+03    0.41415E-02   -0.74455E-03  6940   0.231E-01    0.969E-01
RMM:   7    -0.209993078624E+03    0.30937E-02   -0.40358E-03  6970   0.170E-01    0.528E-01
RMM:   8    -0.209992583794E+03    0.49483E-03   -0.21704E-03  6938   0.119E-01    0.473E-01
RMM:   9    -0.209991425613E+03    0.11582E-02   -0.87678E-04  6938   0.763E-02    0.184E-01
RMM:  10    -0.209991306626E+03    0.11899E-03   -0.28456E-04  6982   0.441E-02    0.139E-01
RMM:  11    -0.209991220597E+03    0.86029E-04   -0.10919E-04  6950   0.275E-02    0.921E-02
RMM:  12    -0.209991167426E+03    0.53171E-04   -0.35972E-05  7038   0.159E-02    0.281E-02
RMM:  13    -0.209991156173E+03    0.11253E-04   -0.16916E-05  7484   0.992E-03    0.222E-02
RMM:  14    -0.209991148042E+03    0.81305E-05   -0.72974E-06  7104   0.657E-03    0.176E-02
RMM:  15    -0.209991144126E+03    0.39166E-05   -0.26413E-06  7236   0.379E-03    0.104E-02
RMM:  16    -0.209991142175E+03    0.19510E-05   -0.10466E-06  6630   0.240E-03    0.550E-03
RMM:  17    -0.209991140758E+03    0.14164E-05   -0.57937E-07  5890   0.178E-03    0.389E-03
RMM:  18    -0.209991140018E+03    0.74023E-06   -0.34487E-07  5128   0.144E-03    0.305E-03
RMM:  19    -0.209991139510E+03    0.50828E-06   -0.24868E-07  4587   0.126E-03    0.153E-03
RMM:  20    -0.209991139403E+03    0.10641E-06   -0.89018E-08  4164   0.879E-04    0.702E-04
RMM:  21    -0.209991139404E+03   -0.39654E-09   -0.44575E-08  3959   0.581E-04
  20 F= -.20999114E+03 E0= -.20998726E+03  d E =-.403662E-01  mag=     0.0002
       N       E                     dE             d eps       ncg     rms          rms(c)
DAV:   1    -0.209993986055E+03   -0.28467E-02   -0.26575E+00  6912   0.484E+00    0.715E-01
RMM:   2    -0.210007808680E+03   -0.13823E-01   -0.78871E-02  6912   0.880E-01    0.134E+00
RMM:   3    -0.209995949105E+03    0.11860E-01   -0.82453E-03  7002   0.267E-01    0.524E-01
RMM:   4    -0.209995188993E+03    0.76011E-03   -0.27177E-03  6914   0.143E-01    0.501E-01
RMM:   5    -0.209994143743E+03    0.10453E-02   -0.98736E-04  6952   0.870E-02    0.338E-01
RMM:   6    -0.209994125648E+03    0.18094E-04   -0.54409E-04  6954   0.618E-02    0.339E-01
RMM:   7    -0.209993710864E+03    0.41478E-03   -0.34881E-04  6966   0.500E-02    0.169E-01
RMM:   8    -0.209993616184E+03    0.94680E-04   -0.17751E-04  6938   0.346E-02    0.128E-01
RMM:   9    -0.209993526509E+03    0.89675E-04   -0.73413E-05  6942   0.223E-02    0.521E-02
RMM:  10    -0.209993516471E+03    0.10038E-04   -0.23251E-05  6996   0.126E-02    0.403E-02
RMM:  11    -0.209993508354E+03    0.81172E-05   -0.92602E-06  6958   0.801E-03    0.257E-02
RMM:  12    -0.209993503609E+03    0.47443E-05   -0.31027E-06  6988   0.468E-03    0.876E-03
RMM:  13    -0.209993502220E+03    0.13891E-05   -0.16210E-06  7086   0.312E-03    0.726E-03
RMM:  14    -0.209993501032E+03    0.11882E-05   -0.67774E-07  6018   0.202E-03    0.415E-03
RMM:  15    -0.209993500628E+03    0.40356E-06   -0.21202E-07  4558   0.123E-03    0.247E-03
RMM:  16    -0.209993500457E+03    0.17115E-06   -0.87613E-08  4150   0.981E-04    0.171E-03
RMM:  17    -0.209993500316E+03    0.14089E-06   -0.68302E-08  4090   0.782E-04    0.111E-03
RMM:  18    -0.209993500237E+03    0.79837E-07   -0.40049E-08  3952   0.570E-04
  21 F= -.20999350E+03 E0= -.20998995E+03  d E =-.427271E-01  mag=     0.0002
       N       E                     dE             d eps       ncg     rms          rms(c)
DAV:   1    -0.209974760149E+03    0.18740E-01   -0.31246E+01  6912   0.162E+01    0.202E+00
RMM:   2    -0.210116906872E+03   -0.14215E+00   -0.80327E-01  6912   0.291E+00    0.367E+00
RMM:   3    -0.210034739962E+03    0.82167E-01   -0.67181E-02  7008   0.829E-01    0.129E+00
RMM:   4    -0.210033032572E+03    0.17074E-02   -0.16848E-02  7006   0.339E-01    0.109E+00
RMM:   5    -0.210029700557E+03    0.33320E-02   -0.83206E-03  6926   0.225E-01    0.105E+00
RMM:   6    -0.210027719199E+03    0.19814E-02   -0.51879E-03  6922   0.188E-01    0.678E-01
RMM:   7    -0.210025712950E+03    0.20062E-02   -0.30131E-03  6940   0.145E-01    0.416E-01
RMM:   8    -0.210024855160E+03    0.85779E-03   -0.81622E-04  6978   0.747E-02    0.203E-01
RMM:   9    -0.210024642777E+03    0.21238E-03   -0.18660E-04  7086   0.355E-02    0.118E-01
RMM:  10    -0.210024633775E+03    0.90027E-05   -0.71439E-05  7080   0.209E-02    0.121E-01
RMM:  11    -0.210024575243E+03    0.58532E-04   -0.50428E-05  6956   0.177E-02    0.671E-02
RMM:  12    -0.210024556324E+03    0.18919E-04   -0.24418E-05  6954   0.127E-02    0.326E-02
RMM:  13    -0.210024553626E+03    0.26976E-05   -0.11579E-05  7080   0.869E-03    0.190E-02
RMM:  14    -0.210024551988E+03    0.16380E-05   -0.24290E-06  7000   0.400E-03    0.912E-03
RMM:  15    -0.210024551585E+03    0.40330E-06   -0.55349E-07  5688   0.186E-03    0.667E-03
RMM:  16    -0.210024551198E+03    0.38653E-06   -0.22787E-07  4580   0.137E-03    0.336E-03
RMM:  17    -0.210024551020E+03    0.17813E-06   -0.11294E-07  4200   0.107E-03    0.246E-03
RMM:  18    -0.210024550936E+03    0.84794E-07   -0.64324E-08  4114   0.848E-04
  22 F= -.21002455E+03 E0= -.21002218E+03  d E =-.310507E-01  mag=     0.0001
       N       E                     dE             d eps       ncg     rms          rms(c)
DAV:   1    -0.210023897783E+03    0.65324E-03   -0.79051E-01  7072   0.259E+00    0.324E-01
RMM:   2    -0.210027593751E+03   -0.36960E-02   -0.20456E-02  6912   0.464E-01    0.586E-01
RMM:   3    -0.210025466431E+03    0.21273E-02   -0.17562E-03  7018   0.133E-01    0.213E-01
RMM:   4    -0.210025431035E+03    0.35396E-04   -0.42655E-04  7024   0.544E-02    0.200E-01
RMM:   5    -0.210025338767E+03    0.92268E-04   -0.21099E-04  6918   0.363E-02    0.188E-01
RMM:   6    -0.210025341665E+03   -0.28979E-05   -0.10284E-04  6934   0.265E-02    0.178E-01
RMM:   7    -0.210025206688E+03    0.13498E-03   -0.94994E-05  6942   0.255E-02    0.827E-02
RMM:   8    -0.210025184214E+03    0.22474E-04   -0.41853E-05  6936   0.175E-02    0.580E-02
RMM:   9    -0.210025164585E+03    0.19629E-04   -0.12814E-05  6948   0.933E-03    0.183E-02
RMM:  10    -0.210025163336E+03    0.12491E-05   -0.28406E-06  6864   0.450E-03    0.141E-02
RMM:  11    -0.210025162535E+03    0.80077E-06   -0.17691E-06  6711   0.334E-03    0.961E-03
RMM:  12    -0.210025162203E+03    0.33244E-06   -0.62705E-07  6264   0.212E-03    0.485E-03
RMM:  13    -0.210025162191E+03    0.12156E-07   -0.22465E-07  4360   0.134E-03
  23 F= -.21002516E+03 E0= -.21002299E+03  d E =-.316620E-01  mag=     0.0001
       N       E                     dE             d eps       ncg     rms          rms(c)
DAV:   1    -0.210030155634E+03   -0.49934E-02   -0.21411E+01  6912   0.136E+01    0.178E+00
RMM:   2    -0.210066320403E+03   -0.36165E-01   -0.54430E-01  6912   0.230E+00    0.190E+00
RMM:   3    -0.210066525991E+03   -0.20559E-03   -0.42215E-02  7052   0.669E-01    0.191E+00
RMM:   4    -0.210060054310E+03    0.64717E-02   -0.17063E-02  6912   0.367E-01    0.156E+00
RMM:   5    -0.210047780129E+03    0.12274E-01   -0.85256E-03  6934   0.262E-01    0.951E-01
RMM:   6    -0.210047756312E+03    0.23818E-04   -0.65845E-03  6966   0.213E-01    0.927E-01
RMM:   7    -0.210043861432E+03    0.38949E-02   -0.26977E-03  7002   0.134E-01    0.337E-01
RMM:   8    -0.210043695356E+03    0.16608E-03   -0.10030E-03  6952   0.836E-02    0.317E-01
RMM:   9    -0.210043192101E+03    0.50326E-03   -0.49806E-04  6980   0.578E-02    0.153E-01
RMM:  10    -0.210043087708E+03    0.10439E-03   -0.16265E-04  6962   0.343E-02    0.991E-02
RMM:  11    -0.210043042374E+03    0.45334E-04   -0.45955E-05  7018   0.190E-02    0.548E-02
RMM:  12    -0.210043028523E+03    0.13851E-04   -0.17469E-05  7108   0.112E-02    0.266E-02
RMM:  13    -0.210043026553E+03    0.19698E-05   -0.78965E-06  7470   0.690E-03    0.193E-02
RMM:  14    -0.210043024605E+03    0.19482E-05   -0.27590E-06  7128   0.416E-03    0.122E-02
RMM:  15    -0.210043023702E+03    0.90303E-06   -0.99319E-07  6522   0.245E-03    0.795E-03
RMM:  16    -0.210043023379E+03    0.32274E-06   -0.34103E-07  5056   0.149E-03    0.432E-03
RMM:  17    -0.210043023172E+03    0.20699E-06   -0.13809E-07  4316   0.120E-03    0.235E-03
RMM:  18    -0.210043023082E+03    0.90105E-07   -0.62942E-08  4136   0.842E-04
  24 F= -.21004302E+03 E0= -.21004130E+03  d E =-.178609E-01  mag=     0.0000
       N       E                     dE             d eps       ncg     rms          rms(c)
DAV:   1    -0.210043033711E+03   -0.10539E-04   -0.51227E-02  7296   0.663E-01    0.890E-02
RMM:   2    -0.210043119305E+03   -0.85595E-04   -0.13430E-03  6912   0.114E-01    0.915E-02
RMM:   3    -0.210043125178E+03   -0.58724E-05   -0.10731E-04  7044   0.336E-02    0.978E-02
RMM:   4    -0.210043105595E+03    0.19583E-04   -0.39634E-05  6912   0.178E-02    0.775E-02
RMM:   5    -0.210043078173E+03    0.27422E-04   -0.18755E-05  6936   0.122E-02    0.481E-02
RMM:   6    -0.210043077963E+03    0.21016E-06   -0.15343E-05  6958   0.104E-02    0.436E-02
RMM:   7    -0.210043069154E+03    0.88091E-05   -0.64364E-06  6982   0.658E-03    0.149E-02
RMM:   8    -0.210043069448E+03   -0.29449E-06   -0.22185E-06  6729   0.395E-03    0.154E-02
RMM:   9    -0.210043068255E+03    0.11926E-05   -0.10074E-06  6358   0.263E-03    0.584E-03
RMM:  10    -0.210043068226E+03    0.29419E-07   -0.29283E-07  4780   0.159E-03
  25 F= -.21004307E+03 E0= -.21004132E+03  d E =-.179060E-01  mag=     0.0000
       N       E                     dE             d eps       ncg     rms          rms(c)
DAV:   1    -0.210036883421E+03    0.61848E-02   -0.11662E+01  6912   0.996E+00    0.129E+00
RMM:   2    -0.210076198739E+03   -0.39315E-01   -0.29744E-01  6912   0.174E+00    0.186E+00
RMM:   3    -0.210062046863E+03    0.14152E-01   -0.22985E-02  7036   0.493E-01    0.111E+00
RMM:   4    -0.210065565696E+03   -0.35188E-02   -0.70974E-03  6926   0.228E-01    0.135E+00
RMM:   5    -0.210055657778E+03    0.99079E-02   -0.35400E-03  6912   0.163E-01    0.559E-01
RMM:   6    -0.210055530216E+03    0.12756E-03   -0.24577E-03  6940   0.131E-01    0.535E-01
RMM:   7    -0.210054189264E+03    0.13410E-02   -0.14948E-03  6996   0.988E-02    0.227E-01
RMM:   8    -0.210053910905E+03    0.27836E-03   -0.34058E-04  6936   0.507E-02    0.111E-01
RMM:   9    -0.210053823192E+03    0.87713E-04   -0.11957E-04  6972   0.280E-02    0.652E-02
RMM:  10    -0.210053812916E+03    0.10276E-04   -0.36806E-05  6948   0.170E-02    0.478E-02
RMM:  11    -0.210053801906E+03    0.11010E-04   -0.16795E-05  6942   0.116E-02    0.269E-02
RMM:  12    -0.210053801282E+03    0.62418E-06   -0.51160E-06  7024   0.611E-03    0.220E-02
RMM:  13    -0.210053800313E+03    0.96922E-06   -0.23842E-06  6944   0.394E-03    0.106E-02
RMM:  14    -0.210053800429E+03   -0.11610E-06   -0.87826E-07  6542   0.242E-03    0.938E-03
RMM:  15    -0.210053800128E+03    0.30112E-06   -0.38971E-07  5241   0.163E-03    0.366E-03
RMM:  16    -0.210053800097E+03    0.30743E-07   -0.84577E-08  4180   0.102E-03
  26 F= -.21005380E+03 E0= -.21005210E+03  d E =-.107319E-01  mag=     0.0000
       N       E                     dE             d eps       ncg     rms          rms(c)
DAV:   1    -0.210053795778E+03    0.43492E-05   -0.11507E-02  7296   0.313E-01    0.400E-02
RMM:   2    -0.210053835263E+03   -0.39485E-04   -0.29495E-04  6912   0.546E-02    0.610E-02
RMM:   3    -0.210053819390E+03    0.15873E-04   -0.22757E-05  7034   0.156E-02    0.354E-02
RMM:   4    -0.210053822352E+03   -0.29617E-05   -0.68301E-06  6916   0.713E-03    0.415E-02
RMM:   5    -0.210053813209E+03    0.91430E-05   -0.36984E-06  6912   0.531E-03    0.185E-02
RMM:   6    -0.210053812730E+03    0.47939E-06   -0.25568E-06  6820   0.428E-03    0.167E-02
RMM:   7    -0.210053811339E+03    0.13904E-05   -0.16260E-06  6848   0.331E-03    0.805E-03
RMM:   8    -0.210053810864E+03    0.47531E-06   -0.33196E-07  4902   0.167E-03    0.327E-03
RMM:   9    -0.210053810734E+03    0.12971E-06   -0.13274E-07  3884   0.134E-03    0.229E-03
RMM:  10    -0.210053810690E+03    0.44321E-07   -0.49781E-08  3650   0.790E-04
  27 F= -.21005381E+03 E0= -.21005211E+03  d E =-.107425E-01  mag=     0.0000
       N       E                     dE             d eps       ncg     rms          rms(c)
DAV:   1    -0.210049415692E+03    0.43950E-02   -0.97785E+00  6912   0.905E+00    0.104E+00
RMM:   2    -0.210098714623E+03   -0.49299E-01   -0.25380E-01  6912   0.162E+00    0.239E+00
RMM:   3    -0.210069411264E+03    0.29303E-01   -0.20293E-02  7064   0.459E-01    0.835E-01
RMM:   4    -0.210069489356E+03   -0.78092E-04   -0.43510E-03  6998   0.178E-01    0.970E-01
RMM:   5    -0.210065827638E+03    0.36617E-02   -0.26385E-03  6912   0.140E-01    0.576E-01
RMM:   6    -0.210066006109E+03   -0.17847E-03   -0.20488E-03  6936   0.122E-01    0.615E-01
RMM:   7    -0.210064270054E+03    0.17361E-02   -0.15057E-03  6942   0.100E-01    0.189E-01
RMM:   8    -0.210064154147E+03    0.11591E-03   -0.42446E-04  6936   0.581E-02    0.153E-01
RMM:   9    -0.210064034583E+03    0.11956E-03   -0.12901E-04  7002   0.295E-02    0.880E-02
RMM:  10    -0.210063999368E+03    0.35215E-04   -0.40669E-05  7002   0.174E-02    0.560E-02
RMM:  11    -0.210063987706E+03    0.11662E-04   -0.24520E-05  6924   0.131E-02    0.438E-02
RMM:  12    -0.210063983826E+03    0.38806E-05   -0.90978E-06  6988   0.839E-03    0.284E-02
RMM:  13    -0.210063980850E+03    0.29755E-05   -0.46249E-06  7076   0.541E-03    0.169E-02
RMM:  14    -0.210063979617E+03    0.12332E-05   -0.14407E-06  6510   0.306E-03    0.971E-03
RMM:  15    -0.210063979077E+03    0.54046E-06   -0.60417E-07  6188   0.194E-03    0.449E-03
RMM:  16    -0.210063978966E+03    0.11059E-06   -0.12320E-07  4236   0.114E-03    0.258E-03
RMM:  17    -0.210063978917E+03    0.48974E-07   -0.46920E-08  4112   0.816E-04
  28 F= -.21006398E+03 E0= -.21006238E+03  d E =-.101682E-01  mag=     0.0000
       N       E                     dE             d eps       ncg     rms          rms(c)
DAV:   1    -0.210063417561E+03    0.56141E-03   -0.70365E-01  6912   0.243E+00    0.282E-01
RMM:   2    -0.210066919728E+03   -0.35022E-02   -0.18274E-02  6912   0.434E-01    0.639E-01
RMM:   3    -0.210064853479E+03    0.20662E-02   -0.14697E-03  7054   0.124E-01    0.222E-01
RMM:   4    -0.210064875939E+03   -0.22460E-04   -0.32466E-04  6972   0.489E-02    0.266E-01
RMM:   5    -0.210064598883E+03    0.27706E-03   -0.18796E-04  6912   0.374E-02    0.158E-01
RMM:   6    -0.210064602113E+03   -0.32296E-05   -0.14604E-04  6936   0.325E-02    0.168E-01
RMM:   7    -0.210064479596E+03    0.12252E-03   -0.11116E-04  6936   0.270E-02    0.579E-02
RMM:   8    -0.210064466441E+03    0.13155E-04   -0.33137E-05  6936   0.163E-02    0.395E-02
RMM:   9    -0.210064458698E+03    0.77435E-05   -0.93170E-06  6936   0.795E-03    0.248E-02
RMM:  10    -0.210064455706E+03    0.29922E-05   -0.28922E-06  6842   0.458E-03    0.148E-02
RMM:  11    -0.210064454738E+03    0.96812E-06   -0.18715E-06  6742   0.361E-03    0.117E-02
RMM:  12    -0.210064454318E+03    0.41948E-06   -0.66747E-07  6062   0.230E-03    0.755E-03
RMM:  13    -0.210064453957E+03    0.36085E-06   -0.27871E-07  4726   0.147E-03    0.406E-03
RMM:  14    -0.210064453855E+03    0.10281E-06   -0.10507E-07  4082   0.120E-03    0.265E-03
RMM:  15    -0.210064453816E+03    0.38728E-07   -0.40260E-08  3964   0.711E-04
  29 F= -.21006445E+03 E0= -.21006287E+03  d E =-.106431E-01  mag=     0.0000
       N       E                     dE             d eps       ncg     rms          rms(c)
DAV:   1    -0.210062007100E+03    0.24468E-02   -0.54014E+00  6912   0.658E+00    0.882E-01
RMM:   2    -0.210086120819E+03   -0.24114E-01   -0.14014E-01  6912   0.120E+00    0.164E+00
RMM:   3    -0.210073292065E+03    0.12829E-01   -0.12139E-02  7076   0.355E-01    0.646E-01
RMM:   4    -0.210075488500E+03   -0.21964E-02   -0.34665E-03  6932   0.159E-01    0.942E-01
RMM:   5    -0.210070645861E+03    0.48426E-02   -0.19141E-03  6920   0.120E-01    0.354E-01
RMM:   6    -0.210070734451E+03   -0.88590E-04   -0.11319E-03  6936   0.903E-02    0.380E-01
RMM:   7    -0.210070008397E+03    0.72605E-03   -0.68784E-04  6944   0.678E-02    0.121E-01
RMM:   8    -0.210070020307E+03   -0.11910E-04   -0.16186E-04  6938   0.346E-02    0.136E-01
RMM:   9    -0.210069916129E+03    0.10418E-03   -0.51767E-05  6952   0.188E-02    0.426E-02
RMM:  10    -0.210069912300E+03    0.38293E-05   -0.21075E-05  6926   0.124E-02    0.408E-02
RMM:  11    -0.210069904925E+03    0.73752E-05   -0.11173E-05  6918   0.919E-03    0.235E-02
RMM:  12    -0.210069904770E+03    0.15529E-06   -0.39861E-06  6928   0.566E-03    0.158E-02
RMM:  13    -0.210069904468E+03    0.30143E-06   -0.13712E-06  6512   0.299E-03    0.101E-02
RMM:  14    -0.210069904317E+03    0.15167E-06   -0.45940E-07  5393   0.183E-03    0.618E-03
RMM:  15    -0.210069904162E+03    0.15494E-06   -0.17229E-07  4332   0.137E-03    0.342E-03
RMM:  16    -0.210069904136E+03    0.26064E-07   -0.56980E-08  4082   0.861E-04
  30 F= -.21006990E+03 E0= -.21006837E+03  d E =-.545032E-02  mag=     0.0000
       N       E                     dE             d eps       ncg     rms          rms(c)
DAV:   1    -0.210069891416E+03    0.12745E-04   -0.20956E-02  7296   0.410E-01    0.540E-02
RMM:   2    -0.210069984990E+03   -0.93573E-04   -0.54242E-04  6912   0.742E-02    0.101E-01
RMM:   3    -0.210069934385E+03    0.50605E-04   -0.46629E-05  7078   0.221E-02    0.395E-02
RMM:   4    -0.210069943656E+03   -0.92712E-05   -0.13215E-05  6932   0.984E-03    0.576E-02
RMM:   5    -0.210069926141E+03    0.17515E-04   -0.73108E-06  6912   0.741E-03    0.226E-02
RMM:   6    -0.210069926915E+03   -0.77403E-06   -0.46783E-06  6936   0.579E-03    0.256E-02
RMM:   7    -0.210069924049E+03    0.28667E-05   -0.28635E-06  6886   0.439E-03    0.790E-03
RMM:   8    -0.210069924130E+03   -0.81074E-07   -0.65323E-07  6008   0.224E-03
  31 F= -.21006992E+03 E0= -.21006839E+03  d E =-.547031E-02  mag=     0.0000
       N       E                     dE             d eps       ncg     rms          rms(c)
DAV:   1    -0.210066403142E+03    0.35209E-02   -0.51011E+00  6912   0.647E+00    0.789E-01
RMM:   2    -0.210085254709E+03   -0.18852E-01   -0.12844E-01  6912   0.115E+00    0.131E+00
RMM:   3    -0.210078150647E+03    0.71041E-02   -0.10475E-02  7186   0.319E-01    0.630E-01
RMM:   4    -0.210079066519E+03   -0.91587E-03   -0.26622E-03  6942   0.138E-01    0.825E-01
RMM:   5    -0.210075520798E+03    0.35457E-02   -0.13575E-03  6912   0.101E-01    0.328E-01
RMM:   6    -0.210075497417E+03    0.23382E-04   -0.89318E-04  6938   0.805E-02    0.323E-01
RMM:   7    -0.210075029120E+03    0.46830E-03   -0.62432E-04  6954   0.640E-02    0.144E-01
RMM:   8    -0.210074953532E+03    0.75588E-04   -0.15898E-04  6960   0.345E-02    0.105E-01
RMM:   9    -0.210074893195E+03    0.60338E-04   -0.43196E-05  7048   0.168E-02    0.490E-02
RMM:  10    -0.210074883324E+03    0.98706E-05   -0.17336E-05  6984   0.111E-02    0.370E-02
RMM:  11    -0.210074877382E+03    0.59423E-05   -0.12856E-05  6928   0.979E-03    0.234E-02
RMM:  12    -0.210074875645E+03    0.17368E-05   -0.43656E-06  6962   0.577E-03    0.163E-02
RMM:  13    -0.210074874262E+03    0.13834E-05   -0.13172E-06  6996   0.291E-03    0.766E-03
RMM:  14    -0.210074873966E+03    0.29574E-06   -0.40904E-07  5238   0.170E-03    0.545E-03
RMM:  15    -0.210074873737E+03    0.22873E-06   -0.22176E-07  4466   0.149E-03    0.234E-03
RMM:  16    -0.210074873694E+03    0.43432E-07   -0.62869E-08  4104   0.937E-04
  32 F= -.21007487E+03 E0= -.21007330E+03  d E =-.494956E-02  mag=     0.0000
       N       E                     dE             d eps       ncg     rms          rms(c)
DAV:   1    -0.210074551834E+03    0.32190E-03   -0.32412E-01  6912   0.163E+00    0.202E-01
RMM:   2    -0.210075742379E+03   -0.11905E-02   -0.81372E-03  6912   0.291E-01    0.331E-01
RMM:   3    -0.210075299605E+03    0.44277E-03   -0.66826E-04  7158   0.808E-02    0.163E-01
RMM:   4    -0.210075357845E+03   -0.58241E-04   -0.17427E-04  6942   0.355E-02    0.210E-01
RMM:   5    -0.210075127949E+03    0.22990E-03   -0.85660E-05  6912   0.255E-02    0.847E-02
RMM:   6    -0.210075123065E+03    0.48843E-05   -0.54953E-05  6936   0.199E-02    0.818E-02
RMM:   7    -0.210075093439E+03    0.29626E-04   -0.40484E-05  6952   0.162E-02    0.379E-02
RMM:   8    -0.210075087422E+03    0.60167E-05   -0.10473E-05  6946   0.888E-03    0.257E-02
RMM:   9    -0.210075083650E+03    0.37716E-05   -0.26821E-06  6888   0.420E-03    0.123E-02
RMM:  10    -0.210075082920E+03    0.73052E-06   -0.10393E-06  6376   0.271E-03    0.905E-03
RMM:  11    -0.210075082421E+03    0.49829E-06   -0.81170E-07  6380   0.248E-03    0.603E-03
RMM:  12    -0.210075082196E+03    0.22593E-06   -0.25382E-07  4698   0.150E-03    0.391E-03
RMM:  13    -0.210075081985E+03    0.21090E-06   -0.77078E-08  4054   0.105E-03    0.172E-03
RMM:  14    -0.210075081962E+03    0.22213E-07   -0.27984E-08  3976   0.586E-04
  33 F= -.21007508E+03 E0= -.21007350E+03  d E =-.515783E-02  mag=     0.0000
       N       E                     dE             d eps       ncg     rms          rms(c)
DAV:   1    -0.210073757110E+03    0.13249E-02   -0.36013E+00  6912   0.558E+00    0.742E-01
RMM:   2    -0.210080124952E+03   -0.63678E-02   -0.90859E-02  6912   0.964E-01    0.683E-01
RMM:   3    -0.210080875313E+03   -0.75036E-03   -0.69912E-03  7104   0.274E-01    0.736E-01
RMM:   4    -0.210079164070E+03    0.17112E-02   -0.27651E-03  6928   0.145E-01    0.547E-01
RMM:   5    -0.210078336479E+03    0.82759E-03   -0.10938E-03  6922   0.942E-02    0.413E-01
RMM:   6    -0.210078177416E+03    0.15906E-03   -0.76849E-04  6958   0.716E-02    0.363E-01
RMM:   7    -0.210077533329E+03    0.64409E-03   -0.42059E-04  6948   0.539E-02    0.143E-01
RMM:   8    -0.210077421694E+03    0.11163E-03   -0.12294E-04  6944   0.301E-02    0.783E-02
RMM:   9    -0.210077393228E+03    0.28466E-04   -0.47396E-05  6936   0.180E-02    0.564E-02
RMM:  10    -0.210077378970E+03    0.14258E-04   -0.14282E-05  6946   0.107E-02    0.205E-02
RMM:  11    -0.210077377836E+03    0.11337E-05   -0.59235E-06  6964   0.653E-03    0.174E-02
RMM:  12    -0.210077377231E+03    0.60537E-06   -0.16532E-06  6672   0.352E-03    0.104E-02
RMM:  13    -0.210077377313E+03   -0.82589E-07   -0.77025E-07  6511   0.225E-03
  34 F= -.21007738E+03 E0= -.21007562E+03  d E =-.229535E-02  mag=     0.0000
       N       E                     dE             d eps       ncg     rms          rms(c)
DAV:   1    -0.210077383089E+03   -0.58587E-05   -0.11038E-01  6976   0.978E-01    0.129E-01
RMM:   2    -0.210077580610E+03   -0.19752E-03   -0.27731E-03  6912   0.168E-01    0.124E-01
RMM:   3    -0.210077590098E+03   -0.94876E-05   -0.21028E-04  7126   0.476E-02    0.124E-01
RMM:   4    -0.210077546244E+03    0.43854E-04   -0.84133E-05  6924   0.253E-02    0.989E-02
RMM:   5    -0.210077518804E+03    0.27440E-04   -0.34831E-05  6922   0.169E-02    0.740E-02
RMM:   6    -0.210077512029E+03    0.67753E-05   -0.24335E-05  6954   0.128E-02    0.629E-02
RMM:   7    -0.210077492647E+03    0.19381E-04   -0.13044E-05  6956   0.955E-03    0.271E-02
RMM:   8    -0.210077488214E+03    0.44337E-05   -0.40290E-06  6854   0.543E-03    0.142E-02
RMM:   9    -0.210077487148E+03    0.10655E-05   -0.15644E-06  6692   0.330E-03    0.103E-02
RMM:  10    -0.210077486509E+03    0.63877E-06   -0.46022E-07  5430   0.198E-03    0.377E-03
RMM:  11    -0.210077486323E+03    0.18625E-06   -0.17626E-07  4154   0.132E-03    0.301E-03
RMM:  12    -0.210077486249E+03    0.73991E-07   -0.69387E-08  3944   0.105E-03
  35 F= -.21007749E+03 E0= -.21007576E+03  d E =-.240429E-02  mag=     0.0000
       N       E                     dE             d eps       ncg     rms          rms(c)
DAV:   1    -0.210077237672E+03    0.24865E-03   -0.15355E+00  6912   0.364E+00    0.387E-01
RMM:   2    -0.210081183510E+03   -0.39458E-02   -0.38257E-02  6912   0.618E-01    0.563E-01
RMM:   3    -0.210080127426E+03    0.10561E-02   -0.24257E-03  7140   0.166E-01    0.355E-01
RMM:   4    -0.210080085035E+03    0.42391E-04   -0.74986E-04  6952   0.738E-02    0.378E-01
RMM:   5    -0.210079356092E+03    0.72894E-03   -0.41892E-04  6912   0.576E-02    0.165E-01
RMM:   6    -0.210079521732E+03   -0.16564E-03   -0.40450E-04  6938   0.544E-02    0.222E-01
RMM:   7    -0.210079258160E+03    0.26357E-03   -0.15832E-04  6964   0.336E-02    0.766E-02
RMM:   8    -0.210079245422E+03    0.12738E-04   -0.47324E-05  6976   0.186E-02    0.720E-02
RMM:   9    -0.210079215971E+03    0.29452E-04   -0.21020E-05  7014   0.119E-02    0.310E-02
RMM:  10    -0.210079212662E+03    0.33089E-05   -0.65400E-06  6976   0.707E-03    0.217E-02
RMM:  11    -0.210079209607E+03    0.30549E-05   -0.32872E-06  6892   0.499E-03    0.137E-02
RMM:  12    -0.210079208564E+03    0.10425E-05   -0.10218E-06  6400   0.279E-03    0.732E-03
RMM:  13    -0.210079208041E+03    0.52364E-06   -0.43867E-07  5410   0.173E-03    0.594E-03
RMM:  14    -0.210079207676E+03    0.36433E-06   -0.18189E-07  4425   0.137E-03    0.322E-03
RMM:  15    -0.210079207558E+03    0.11884E-06   -0.66647E-08  4094   0.891E-04    0.149E-03
RMM:  16    -0.210079207501E+03    0.56834E-07   -0.30696E-08  3960   0.595E-04
  36 F= -.21007921E+03 E0= -.21007740E+03  d E =-.172125E-02  mag=    -0.0000
       N       E                     dE             d eps       ncg     rms          rms(c)
DAV:   1    -0.210079174513E+03    0.33045E-04   -0.71602E-02  7008   0.786E-01    0.840E-02
RMM:   2    -0.210079357652E+03   -0.18314E-03   -0.17887E-03  6912   0.134E-01    0.121E-01
RMM:   3    -0.210079309166E+03    0.48487E-04   -0.11426E-04  7160   0.360E-02    0.774E-02
RMM:   4    -0.210079306665E+03    0.25011E-05   -0.35185E-05  6952   0.160E-02    0.821E-02
RMM:   5    -0.210079271955E+03    0.34710E-04   -0.19524E-05  6912   0.124E-02    0.354E-02
RMM:   6    -0.210079278830E+03   -0.68751E-05   -0.18686E-05  6938   0.117E-02    0.477E-02
RMM:   7    -0.210079266276E+03    0.12554E-04   -0.72980E-06  6964   0.721E-03    0.161E-02
RMM:   8    -0.210079265554E+03    0.72237E-06   -0.21477E-06  6672   0.396E-03    0.154E-02
RMM:   9    -0.210079264138E+03    0.14162E-05   -0.94261E-07  6374   0.255E-03    0.669E-03
RMM:  10    -0.210079263892E+03    0.24575E-06   -0.27700E-07  4766   0.156E-03    0.458E-03
RMM:  11    -0.210079263666E+03    0.22592E-06   -0.14783E-07  4076   0.128E-03    0.309E-03
RMM:  12    -0.210079263556E+03    0.11014E-06   -0.61968E-08  3870   0.946E-04    0.154E-03
RMM:  13    -0.210079263470E+03    0.85640E-07   -0.25858E-08  3723   0.537E-04
  37 F= -.21007926E+03 E0= -.21007744E+03  d E =-.177722E-02  mag=    -0.0000
       N       E                     dE             d eps       ncg     rms          rms(c)
DAV:   1    -0.210078570155E+03    0.69340E-03   -0.16114E+00  6912   0.363E+00    0.409E-01
RMM:   2    -0.210087606437E+03   -0.90363E-02   -0.40133E-02  6912   0.635E-01    0.100E+00
RMM:   3    -0.210081990303E+03    0.56161E-02   -0.33884E-03  6972   0.188E-01    0.375E-01
RMM:   4    -0.210081680318E+03    0.30999E-03   -0.80017E-04  6968   0.773E-02    0.352E-01
RMM:   5    -0.210080995738E+03    0.68458E-03   -0.27373E-04  6916   0.449E-02    0.126E-01
RMM:   6    -0.210081108151E+03   -0.11241E-03   -0.22206E-04  6912   0.380E-02    0.198E-01
RMM:   7    -0.210080939157E+03    0.16899E-03   -0.17098E-04  6922   0.334E-02    0.771E-02
RMM:   8    -0.210080927690E+03    0.11467E-04   -0.59272E-05  6984   0.212E-02    0.728E-02
RMM:   9    -0.210080898308E+03    0.29381E-04   -0.17449E-05  7010   0.110E-02    0.251E-02
RMM:  10    -0.210080895577E+03    0.27309E-05   -0.43591E-06  6988   0.542E-03    0.189E-02
RMM:  11    -0.210080894614E+03    0.96322E-06   -0.28164E-06  6860   0.424E-03    0.146E-02
RMM:  12    -0.210080893879E+03    0.73462E-06   -0.12743E-06  6446   0.287E-03    0.797E-03
RMM:  13    -0.210080893859E+03    0.20116E-07   -0.35340E-07  5066   0.163E-03
  38 F= -.21008089E+03 E0= -.21007907E+03  d E =-.163039E-02  mag=    -0.0000
       N       E                     dE             d eps       ncg     rms          rms(c)
DAV:   1    -0.210080720692E+03    0.17319E-03   -0.21351E-01  6912   0.132E+00    0.149E-01
RMM:   2    -0.210081900238E+03   -0.11795E-02   -0.53138E-03  6912   0.231E-01    0.360E-01
RMM:   3    -0.210081178193E+03    0.72204E-03   -0.44881E-04  6974   0.683E-02    0.137E-01
RMM:   4    -0.210081136207E+03    0.41987E-04   -0.10537E-04  6972   0.281E-02    0.129E-01
RMM:   5    -0.210081045240E+03    0.90966E-04   -0.36913E-05  6914   0.165E-02    0.462E-02
RMM:   6    -0.210081059790E+03   -0.14550E-04   -0.28899E-05  6912   0.137E-02    0.721E-02
RMM:   7    -0.210081037495E+03    0.22295E-04   -0.22892E-05  6922   0.122E-02    0.269E-02
RMM:   8    -0.210081036763E+03    0.73164E-06   -0.77653E-06  6944   0.765E-03    0.275E-02
RMM:   9    -0.210081032544E+03    0.42191E-05   -0.23471E-06  6774   0.404E-03    0.854E-03
RMM:  10    -0.210081032294E+03    0.25012E-06   -0.53156E-07  5600   0.196E-03    0.701E-03
RMM:  11    -0.210081032150E+03    0.14333E-06   -0.37712E-07  5293   0.171E-03    0.480E-03
RMM:  12    -0.210081032100E+03    0.50108E-07   -0.16621E-07  4140   0.127E-03
  39 F= -.21008103E+03 E0= -.21007921E+03  d E =-.176863E-02  mag=     0.0000
       N       E                     dE             d eps       ncg     rms          rms(c)
DAV:   1    -0.210080759043E+03    0.27311E-03   -0.11136E+00  6912   0.310E+00    0.379E-01
RMM:   2    -0.210085009958E+03   -0.42509E-02   -0.28901E-02  6912   0.541E-01    0.654E-01
RMM:   3    -0.210082873993E+03    0.21360E-02   -0.22393E-03  7052   0.151E-01    0.355E-01
RMM:   4    -0.210082878576E+03   -0.45832E-05   -0.66116E-04  6952   0.706E-02    0.377E-01
RMM:   5    -0.210082091843E+03    0.78673E-03   -0.40871E-04  6912   0.574E-02    0.151E-01
RMM:   6    -0.210082161606E+03   -0.69763E-04   -0.24176E-04  6950   0.415E-02    0.178E-01
RMM:   7    -0.210082011814E+03    0.14979E-03   -0.15103E-04  6958   0.325E-02    0.762E-02
RMM:   8    -0.210081993978E+03    0.17836E-04   -0.34426E-05  6976   0.159E-02    0.545E-02
RMM:   9    -0.210081973936E+03    0.20042E-04   -0.15489E-05  6992   0.103E-02    0.251E-02
RMM:  10    -0.210081973061E+03    0.87498E-06   -0.50955E-06  6940   0.608E-03    0.206E-02
RMM:  11    -0.210081970182E+03    0.28786E-05   -0.24063E-06  6904   0.428E-03    0.111E-02
RMM:  12    -0.210081969664E+03    0.51861E-06   -0.62745E-07  6004   0.221E-03    0.735E-03
RMM:  13    -0.210081969236E+03    0.42801E-06   -0.30850E-07  4786   0.157E-03    0.401E-03
RMM:  14    -0.210081969031E+03    0.20453E-06   -0.11620E-07  4122   0.124E-03    0.226E-03
RMM:  15    -0.210081968967E+03    0.64054E-07   -0.44995E-08  3990   0.761E-04
  40 F= -.21008197E+03 E0= -.21008008E+03  d E =-.936867E-03  mag=     0.0000
       N       E                     dE             d eps       ncg     rms          rms(c)
DAV:   1    -0.210081968907E+03    0.12453E-06   -0.16880E-03  7296   0.121E-01    0.147E-02
RMM:   2    -0.210081975045E+03   -0.61386E-05   -0.43993E-05  6912   0.211E-02    0.248E-02
RMM:   3    -0.210081971842E+03    0.32036E-05   -0.34027E-06  7002   0.587E-03    0.136E-02
RMM:   4    -0.210081971955E+03   -0.11293E-06   -0.99153E-07  6390   0.275E-03    0.148E-02
RMM:   5    -0.210081970672E+03    0.12827E-05   -0.60854E-07  6106   0.224E-03    0.554E-03
RMM:   6    -0.210081970722E+03   -0.50219E-07   -0.35346E-07  5028   0.166E-03
  41 F= -.21008197E+03 E0= -.21008008E+03  d E =-.938622E-03  mag=    -0.0000
       N       E                     dE             d eps       ncg     rms          rms(c)
DAV:   1    -0.210081387930E+03    0.58274E-03   -0.88090E-01  6912   0.278E+00    0.327E-01
RMM:   2    -0.210085056949E+03   -0.36690E-02   -0.22424E-02  6912   0.487E-01    0.592E-01
RMM:   3    -0.210083313154E+03    0.17438E-02   -0.17454E-03  7104   0.133E-01    0.298E-01
RMM:   4    -0.210083307872E+03    0.52820E-05   -0.42401E-04  6918   0.560E-02    0.289E-01
RMM:   5    -0.210082878561E+03    0.42931E-03   -0.26656E-04  6912   0.444E-02    0.170E-01
RMM:   6    -0.210082826106E+03    0.52455E-04   -0.14403E-04  6936   0.326E-02    0.129E-01
RMM:   7    -0.210082761580E+03    0.64526E-04   -0.11478E-04  6940   0.282E-02    0.577E-02
RMM:   8    -0.210082749436E+03    0.12144E-04   -0.24712E-05  6938   0.134E-02    0.389E-02
RMM:   9    -0.210082738159E+03    0.11277E-04   -0.90459E-06  6936   0.774E-03    0.169E-02
RMM:  10    -0.210082737875E+03    0.28413E-06   -0.29592E-06  6934   0.460E-03    0.141E-02
RMM:  11    -0.210082737004E+03    0.87129E-06   -0.18978E-06  6756   0.374E-03    0.868E-03
RMM:  12    -0.210082736920E+03    0.84072E-07   -0.37890E-07  5098   0.183E-03
  42 F= -.21008274E+03 E0= -.21008071E+03  d E =-.766198E-03  mag=    -0.0000
       N       E                     dE             d eps       ncg     rms          rms(c)
DAV:   1    -0.210082707627E+03    0.29377E-04   -0.30510E-02  6912   0.517E-01    0.606E-02
RMM:   2    -0.210082838564E+03   -0.13094E-03   -0.77572E-04  6912   0.905E-02    0.112E-01
RMM:   3    -0.210082773827E+03    0.64737E-04   -0.60471E-05  7092   0.247E-02    0.560E-02
RMM:   4    -0.210082773715E+03    0.11236E-06   -0.14613E-05  6924   0.104E-02    0.519E-02
RMM:   5    -0.210082760317E+03    0.13398E-04   -0.94788E-06  6912   0.835E-03    0.317E-02
RMM:   6    -0.210082758805E+03    0.15121E-05   -0.51168E-06  6936   0.615E-03    0.244E-02
RMM:   7    -0.210082756867E+03    0.19377E-05   -0.40495E-06  6942   0.533E-03    0.107E-02
RMM:   8    -0.210082756528E+03    0.33886E-06   -0.85633E-07  6262   0.252E-03    0.723E-03
RMM:   9    -0.210082756201E+03    0.32680E-06   -0.30661E-07  4854   0.156E-03    0.353E-03
RMM:  10    -0.210082756208E+03   -0.61937E-08   -0.11391E-07  4008   0.117E-03
  43 F= -.21008276E+03 E0= -.21008071E+03  d E =-.785485E-03  mag=    -0.0000
       N       E                     dE             d eps       ncg     rms          rms(c)
DAV:   1    -0.210082705151E+03    0.51050E-04   -0.35234E-01  6912   0.173E+00    0.232E-01
RMM:   2    -0.210083979135E+03   -0.12740E-02   -0.93761E-03  6912   0.312E-01    0.348E-01
RMM:   3    -0.210083455328E+03    0.52381E-03   -0.83214E-04  7084   0.897E-02    0.222E-01
RMM:   4    -0.210083447270E+03    0.80585E-05   -0.23327E-04  6932   0.419E-02    0.220E-01
RMM:   5    -0.210083189927E+03    0.25734E-03   -0.14664E-04  6920   0.334E-02    0.110E-01
RMM:   6    -0.210083164960E+03    0.24967E-04   -0.77697E-05  6936   0.233E-02    0.851E-02
RMM:   7    -0.210083129100E+03    0.35860E-04   -0.43507E-05  6956   0.173E-02    0.319E-02
RMM:   8    -0.210083127035E+03    0.20646E-05   -0.10054E-05  6990   0.823E-03    0.271E-02
[...]
       N       E                     dE             d eps       ncg     rms          rms(c)
DAV:   1    -0.210083959482E+03    0.11838E-03   -0.13880E-01  6912   0.109E+00    0.867E-02
RMM:   2    -0.210084258343E+03   -0.29886E-03   -0.30935E-03  6912   0.179E-01    0.758E-02
RMM:   3    -0.210084276443E+03   -0.18100E-04   -0.19609E-04  7450   0.461E-02    0.794E-02
RMM:   4    -0.210084240635E+03    0.35808E-04   -0.36175E-05  6964   0.160E-02    0.498E-02
RMM:   5    -0.210084233548E+03    0.70868E-05   -0.75710E-06  6926   0.768E-03    0.282E-02
RMM:   6    -0.210084233749E+03   -0.20063E-06   -0.14782E-05  6936   0.969E-03    0.335E-02
RMM:   7    -0.210084230716E+03    0.30332E-05   -0.42493E-06  6930   0.578E-03    0.232E-02
RMM:   8    -0.210084228005E+03    0.27108E-05   -0.19900E-06  6784   0.362E-03    0.111E-02
RMM:   9    -0.210084227278E+03    0.72718E-06   -0.39803E-07  5228   0.180E-03    0.458E-03
RMM:  10    -0.210084227093E+03    0.18508E-06   -0.17116E-07  4084   0.140E-03    0.329E-03
RMM:  11    -0.210084227003E+03    0.89716E-07   -0.14091E-07  3918   0.123E-03
  60 F= -.21008423E+03 E0= -.21008173E+03  d E =-.149227E-03  mag=    -0.0000
       N       E                     dE             d eps       ncg     rms          rms(c)
DAV:   1    -0.210084083291E+03    0.14380E-03   -0.10525E-01  6912   0.947E-01    0.759E-02
RMM:   2    -0.210084310901E+03   -0.22761E-03   -0.23545E-03  6912   0.156E-01    0.660E-02
RMM:   3    -0.210084324993E+03   -0.14091E-04   -0.14970E-04  7456   0.402E-02    0.696E-02
RMM:   4    -0.210084297449E+03    0.27544E-04   -0.27526E-05  6966   0.140E-02    0.426E-02
RMM:   5    -0.210084292320E+03    0.51291E-05   -0.59112E-06  6906   0.675E-03    0.244E-02
RMM:   6    -0.210084289995E+03    0.23247E-05   -0.11770E-05  6936   0.869E-03    0.190E-02
RMM:   7    -0.210084289143E+03    0.85165E-06   -0.33100E-06  6880   0.509E-03    0.155E-02
RMM:   8    -0.210084287998E+03    0.11449E-05   -0.81389E-07  6300   0.235E-03    0.854E-03
RMM:   9    -0.210084287665E+03    0.33328E-06   -0.20586E-07  4516   0.136E-03    0.556E-03
RMM:  10    -0.210084287461E+03    0.20386E-06   -0.12671E-07  4014   0.126E-03    0.284E-03
RMM:  11    -0.210084287376E+03    0.85431E-07   -0.11043E-07  3848   0.107E-03
  61 F= -.21008429E+03 E0= -.21008176E+03  d E =-.209600E-03  mag=    -0.0000
       N       E                     dE             d eps       ncg     rms          rms(c)
DAV:   1    -0.210084261881E+03    0.25580E-04   -0.16403E-02  6944   0.374E-01    0.301E-02
RMM:   2    -0.210084297352E+03   -0.35471E-04   -0.36778E-04  6912   0.617E-02    0.259E-02
RMM:   3    -0.210084299580E+03   -0.22285E-05   -0.23393E-05  7434   0.159E-02    0.272E-02
RMM:   4    -0.210084295330E+03    0.42506E-05   -0.42808E-06  6900   0.551E-03    0.169E-02
RMM:   5    -0.210084294495E+03    0.83478E-06   -0.90358E-07  6302   0.267E-03    0.959E-03
RMM:   6    -0.210084294311E+03    0.18421E-06   -0.18240E-06  6836   0.344E-03    0.103E-02
RMM:   7    -0.210084294086E+03    0.22422E-06   -0.47180E-07  5388   0.198E-03    0.821E-03
RMM:   8    -0.210084293715E+03    0.37164E-06   -0.18705E-07  4202   0.138E-03    0.389E-03
RMM:   9    -0.210084293624E+03    0.91019E-07   -0.76625E-08  3740   0.107E-03
  62 F= -.21008429E+03 E0= -.21008176E+03  d E =-.215848E-03  mag=     0.0000
       N       E                     dE             d eps       ncg     rms          rms(c)
DAV:   1    -0.210084083970E+03    0.20974E-03   -0.18669E-01  6912   0.123E+00    0.114E-01
RMM:   2    -0.210084548180E+03   -0.46421E-03   -0.40477E-03  6912   0.205E-01    0.139E-01
RMM:   3    -0.210084542892E+03    0.52879E-05   -0.28805E-04  7340   0.548E-02    0.142E-01
RMM:   4    -0.210084478767E+03    0.64125E-04   -0.55372E-05  6950   0.210E-02    0.880E-02
RMM:   5    -0.210084430610E+03    0.48157E-04   -0.20480E-05  6912   0.120E-02    0.330E-02
RMM:   6    -0.210084430385E+03    0.22579E-06   -0.22900E-05  6912   0.117E-02    0.312E-02
RMM:   7    -0.210084428127E+03    0.22579E-05   -0.99667E-06  6936   0.804E-03    0.250E-02
RMM:   8    -0.210084424533E+03    0.35933E-05   -0.32722E-06  6906   0.471E-03    0.706E-03
RMM:   9    -0.210084424202E+03    0.33141E-06   -0.58880E-07  5938   0.204E-03    0.565E-03
RMM:  10    -0.210084424054E+03    0.14808E-06   -0.17173E-07  4206   0.124E-03    0.318E-03
RMM:  11    -0.210084424063E+03   -0.94242E-08   -0.17888E-07  4140   0.136E-03
  63 F= -.21008442E+03 E0= -.21008189E+03  d E =-.130440E-03  mag=     0.0000
       N       E                     dE             d eps       ncg     rms          rms(c)
DAV:   1    -0.210084352469E+03    0.71585E-04   -0.52203E-02  6912   0.652E-01    0.605E-02
RMM:   2    -0.210084483943E+03   -0.13147E-03   -0.11335E-03  6912   0.108E-01    0.742E-02
RMM:   3    -0.210084480548E+03    0.33948E-05   -0.80846E-05  7306   0.291E-02    0.742E-02
RMM:   4    -0.210084464133E+03    0.16415E-04   -0.15466E-05  6952   0.111E-02    0.475E-02
RMM:   5    -0.210084449922E+03    0.14211E-04   -0.58434E-06  6868   0.641E-03    0.175E-02
RMM:   6    -0.210084450345E+03   -0.42228E-06   -0.64947E-06  6912   0.630E-03    0.189E-02
RMM:   7    -0.210084449316E+03    0.10290E-05   -0.28398E-06  6848   0.426E-03    0.131E-02
RMM:   8    -0.210084448447E+03    0.86921E-06   -0.10300E-06  6528   0.264E-03    0.556E-03
RMM:   9    -0.210084448303E+03    0.14331E-06   -0.14986E-07  4198   0.119E-03    0.374E-03
RMM:  10    -0.210084448253E+03    0.50424E-07   -0.94352E-08  3896   0.114E-03
  64 F= -.21008445E+03 E0= -.21008191E+03  d E =-.154629E-03  mag=     0.0000
       N       E                     dE             d eps       ncg     rms          rms(c)
DAV:   1    -0.210084288508E+03    0.15980E-03   -0.16498E-01  6912   0.118E+00    0.125E-01
RMM:   2    -0.210084733705E+03   -0.44520E-03   -0.39197E-03  6912   0.205E-01    0.169E-01
RMM:   3    -0.210084678942E+03    0.54763E-04   -0.29328E-04  7464   0.538E-02    0.130E-01
RMM:   4    -0.210084640041E+03    0.38901E-04   -0.72005E-05  6918   0.237E-02    0.109E-01
RMM:   5    -0.210084569210E+03    0.70831E-04   -0.35905E-05  6920   0.167E-02    0.384E-02
RMM:   6    -0.210084565279E+03    0.39311E-05   -0.28516E-05  6938   0.138E-02    0.326E-02
RMM:   7    -0.210084562973E+03    0.23065E-05   -0.99376E-06  6946   0.827E-03    0.279E-02
RMM:   8    -0.210084559195E+03    0.37778E-05   -0.33914E-06  6838   0.475E-03    0.133E-02
RMM:   9    -0.210084558094E+03    0.11006E-05   -0.11538E-06  6468   0.277E-03    0.739E-03
RMM:  10    -0.210084557728E+03    0.36647E-06   -0.37606E-07  5106   0.178E-03    0.415E-03
RMM:  11    -0.210084557569E+03    0.15868E-06   -0.24366E-07  4364   0.155E-03    0.314E-03
RMM:  12    -0.210084557491E+03    0.78455E-07   -0.87014E-08  3922   0.110E-03
  65 F= -.21008456E+03 E0= -.21008201E+03  d E =-.109238E-03  mag=    -0.0000
       N       E                     dE             d eps       ncg     rms          rms(c)
DAV:   1    -0.210084516404E+03    0.41165E-04   -0.30465E-02  6944   0.507E-01    0.536E-02
RMM:   2    -0.210084597257E+03   -0.80853E-04   -0.72240E-04  6912   0.881E-02    0.719E-02
RMM:   3    -0.210084587762E+03    0.94951E-05   -0.53938E-05  7460   0.231E-02    0.556E-02
RMM:   4    -0.210084580716E+03    0.70462E-05   -0.13180E-05  6918   0.101E-02    0.469E-02
RMM:   5    -0.210084567438E+03    0.13278E-04   -0.66003E-06  6912   0.714E-03    0.163E-02
RMM:   6    -0.210084566368E+03    0.10704E-05   -0.53418E-06  6938   0.594E-03    0.127E-02
RMM:   7    -0.210084565905E+03    0.46357E-06   -0.17612E-06  6712   0.349E-03    0.110E-02
RMM:   8    -0.210084565282E+03    0.62234E-06   -0.54366E-07  5544   0.195E-03    0.563E-03
RMM:   9    -0.210084565069E+03    0.21359E-06   -0.19738E-07  4294   0.141E-03    0.334E-03
RMM:  10    -0.210084564976E+03    0.92912E-07   -0.83229E-08  3790   0.103E-03
  66 F= -.21008456E+03 E0= -.21008202E+03  d E =-.116723E-03  mag=     0.0000
       N       E                     dE             d eps       ncg     rms          rms(c)
DAV:   1    -0.210084478331E+03    0.86737E-04   -0.10065E-01  6912   0.926E-01    0.897E-02
RMM:   2    -0.210084687246E+03   -0.20891E-03   -0.23538E-03  6912   0.158E-01    0.802E-02
RMM:   3    -0.210084715999E+03   -0.28752E-04   -0.17072E-04  7400   0.417E-02    0.997E-02
RMM:   4    -0.210084685290E+03    0.30709E-04   -0.35618E-05  6932   0.162E-02    0.790E-02
RMM:   5    -0.210084651759E+03    0.33531E-04   -0.16185E-05  6912   0.111E-02    0.315E-02
RMM:   6    -0.210084650616E+03    0.11429E-05   -0.14158E-05  6940   0.965E-03    0.282E-02
RMM:   7    -0.210084648624E+03    0.19919E-05   -0.62156E-06  6940   0.651E-03    0.210E-02
RMM:   8    -0.210084646832E+03    0.17920E-05   -0.20708E-06  6676   0.380E-03    0.106E-02
RMM:   9    -0.210084646273E+03    0.55934E-06   -0.64828E-07  6248   0.212E-03    0.466E-03
RMM:  10    -0.210084646267E+03    0.53933E-08   -0.21574E-07  4378   0.140E-03
  67 F= -.21008465E+03 E0= -.21008209E+03  d E =-.812917E-04  mag=    -0.0000
       N       E                     dE             d eps       ncg     rms          rms(c)
DAV:   1    -0.210084624736E+03    0.21536E-04   -0.22361E-02  6912   0.437E-01    0.425E-02
RMM:   2    -0.210084671715E+03   -0.46979E-04   -0.52451E-04  6912   0.748E-02    0.376E-02
RMM:   3    -0.210084677112E+03   -0.53966E-05   -0.38262E-05  7394   0.197E-02    0.455E-02
RMM:   4    -0.210084671249E+03    0.58630E-05   -0.78194E-06  6928   0.757E-03    0.378E-02
RMM:   5    -0.210084663861E+03    0.73881E-05   -0.32469E-06  6838   0.500E-03    0.143E-02
RMM:   6    -0.210084663941E+03   -0.80030E-07   -0.31326E-06  6940   0.455E-03    0.142E-02
RMM:   7    -0.210084663428E+03    0.51229E-06   -0.14015E-06  6624   0.309E-03    0.902E-03
RMM:   8    -0.210084663115E+03    0.31306E-06   -0.44640E-07  5157   0.184E-03    0.484E-03
RMM:   9    -0.210084663036E+03    0.79744E-07   -0.15540E-07  4004   0.136E-03
  68 F= -.21008466E+03 E0= -.21008211E+03  d E =-.980599E-04  mag=    -0.0000
       N       E                     dE             d eps       ncg     rms          rms(c)
DAV:   1    -0.210084509188E+03    0.15393E-03   -0.89388E-02  6912   0.873E-01    0.846E-02
RMM:   2    -0.210084696259E+03   -0.18707E-03   -0.20923E-03  6912   0.149E-01    0.769E-02
RMM:   3    -0.210084718914E+03   -0.22655E-04   -0.15238E-04  7392   0.394E-02    0.924E-02
RMM:   4    -0.210084694188E+03    0.24726E-04   -0.31746E-05  6934   0.152E-02    0.754E-02
RMM:   5    -0.210084663963E+03    0.30225E-04   -0.13991E-05  6912   0.104E-02    0.299E-02
RMM:   6    -0.210084663328E+03    0.63507E-06   -0.12725E-05  6940   0.911E-03    0.282E-02
RMM:   7    -0.210084661397E+03    0.19308E-05   -0.55956E-06  6938   0.620E-03    0.206E-02
RMM:   8    -0.210084659591E+03    0.18057E-05   -0.19998E-06  6684   0.374E-03    0.960E-03
RMM:   9    -0.210084659124E+03    0.46710E-06   -0.57780E-07  6104   0.200E-03    0.431E-03
RMM:  10    -0.210084659130E+03   -0.53260E-08   -0.19612E-07  4268   0.136E-03
  69 F= -.21008466E+03 E0= -.21008210E+03  d E =-.941540E-04  mag=    -0.0000
       N       E                     dE             d eps       ncg     rms          rms(c)
DAV:   1    -0.210084623727E+03    0.35397E-04   -0.27136E-02  6912   0.481E-01    0.461E-02
RMM:   2    -0.210084680008E+03   -0.56281E-04   -0.63210E-04  6912   0.821E-02    0.438E-02
RMM:   3    -0.210084687455E+03   -0.74468E-05   -0.45452E-05  7404   0.216E-02    0.531E-02
RMM:   4    -0.210084678122E+03    0.93326E-05   -0.95496E-06  6932   0.845E-03    0.397E-02
RMM:   5    -0.210084669213E+03    0.89091E-05   -0.46976E-06  6892   0.596E-03    0.168E-02
RMM:   6    -0.210084668478E+03    0.73520E-06   -0.38876E-06  6940   0.506E-03    0.149E-02
RMM:   7    -0.210084667672E+03    0.80595E-06   -0.16844E-06  6750   0.342E-03    0.114E-02
RMM:   8    -0.210084667015E+03    0.65696E-06   -0.55574E-07  5572   0.202E-03    0.499E-03
RMM:   9    -0.210084666791E+03    0.22349E-06   -0.16271E-07  4020   0.133E-03    0.243E-03
RMM:  10    -0.210084666726E+03    0.65564E-07   -0.77969E-08  3662   0.102E-03
  70 F= -.21008467E+03 E0= -.21008210E+03  d E =-.101750E-03  mag=    -0.0000
       N       E                     dE             d eps       ncg     rms          rms(c)
DAV:   1    -0.210084654045E+03    0.12746E-04   -0.45319E-02  6912   0.597E-01    0.511E-02
RMM:   2    -0.210084763339E+03   -0.10929E-03   -0.97969E-04  6912   0.101E-01    0.628E-02
RMM:   3    -0.210084756063E+03    0.72766E-05   -0.67087E-05  7464   0.266E-02    0.574E-02
RMM:   4    -0.210084746249E+03    0.98138E-05   -0.12593E-05  6938   0.961E-03    0.410E-02
RMM:   5    -0.210084737873E+03    0.83758E-05   -0.56137E-06  6848   0.620E-03    0.216E-02
RMM:   6    -0.210084739829E+03   -0.19563E-05   -0.58191E-06  6856   0.587E-03    0.295E-02
RMM:   7    -0.210084736468E+03    0.33611E-05   -0.44337E-06  6816   0.509E-03    0.119E-02
RMM:   8    -0.210084735685E+03    0.78311E-06   -0.15460E-06  6622   0.327E-03    0.876E-03
RMM:   9    -0.210084735227E+03    0.45784E-06   -0.25017E-07  4682   0.146E-03    0.291E-03
RMM:  10    -0.210084735165E+03    0.61895E-07   -0.88610E-08  3838   0.108E-03
  71 F= -.21008474E+03 E0= -.21008217E+03  d E =-.684397E-04  mag=    -0.0000
       N       E                     dE             d eps       ncg     rms          rms(c)
DAV:   1    -0.210084651538E+03    0.83689E-04   -0.55324E-02  6912   0.660E-01    0.569E-02
RMM:   2    -0.210084787748E+03   -0.13621E-03   -0.12029E-03  6912   0.112E-01    0.710E-02
RMM:   3    -0.210084777297E+03    0.10450E-04   -0.82607E-05  7454   0.295E-02    0.644E-02
RMM:   4    -0.210084764994E+03    0.12303E-04   -0.15777E-05  6942   0.108E-02    0.455E-02
RMM:   5    -0.210084754797E+03    0.10197E-04   -0.68581E-06  6872   0.686E-03    0.241E-02
RMM:   6    -0.210084757381E+03   -0.25842E-05   -0.70905E-06  6866   0.650E-03    0.332E-02
RMM:   7    -0.210084753135E+03    0.42457E-05   -0.56021E-06  6832   0.572E-03    0.131E-02
RMM:   8    -0.210084752196E+03    0.93929E-06   -0.19256E-06  6736   0.365E-03    0.100E-02
RMM:   9    -0.210084751613E+03    0.58275E-06   -0.33456E-07  5030   0.164E-03    0.326E-03
RMM:  10    -0.210084751537E+03    0.76268E-07   -0.99302E-08  3910   0.111E-03
  72 F= -.21008475E+03 E0= -.21008219E+03  d E =-.848113E-04  mag=    -0.0000
       N       E                     dE             d eps       ncg     rms          rms(c)
DAV:   1    -0.210084696524E+03    0.55089E-04   -0.58617E-02  6912   0.700E-01    0.584E-02
RMM:   2    -0.210084844643E+03   -0.14812E-03   -0.12985E-03  6912   0.117E-01    0.755E-02
RMM:   3    -0.210084834495E+03    0.10148E-04   -0.89195E-05  7454   0.306E-02    0.689E-02
RMM:   4    -0.210084818124E+03    0.16371E-04   -0.17193E-05  6948   0.112E-02    0.421E-02
RMM:   5    -0.210084807517E+03    0.10607E-04   -0.83071E-06  6888   0.744E-03    0.240E-02
RMM:   6    -0.210084807751E+03   -0.23494E-06   -0.59678E-06  6926   0.604E-03    0.233E-02
RMM:   7    -0.210084805087E+03    0.26648E-05   -0.42231E-06  6856   0.511E-03    0.107E-02
RMM:   8    -0.210084804675E+03    0.41179E-06   -0.11374E-06  6522   0.279E-03    0.858E-03
RMM:   9    -0.210084804251E+03    0.42354E-06   -0.22000E-07  4552   0.138E-03    0.319E-03
RMM:  10    -0.210084804179E+03    0.72308E-07   -0.93593E-08  3884   0.111E-03
  73 F= -.21008480E+03 E0= -.21008224E+03  d E =-.526419E-04  mag=    -0.0000
       N       E                     dE             d eps       ncg     rms          rms(c)
DAV:   1    -0.210084762282E+03    0.41970E-04   -0.33285E-02  6912   0.528E-01    0.442E-02
RMM:   2    -0.210084848169E+03   -0.85887E-04   -0.73844E-04  6912   0.880E-02    0.599E-02
RMM:   3    -0.210084840019E+03    0.81496E-05   -0.51038E-05  7450   0.231E-02    0.510E-02
RMM:   4    -0.210084831591E+03    0.84280E-05   -0.98492E-06  6916   0.850E-03    0.323E-02
RMM:   5    -0.210084825440E+03    0.61510E-05   -0.47156E-06  6864   0.560E-03    0.190E-02
RMM:   6    -0.210084825459E+03   -0.18268E-07   -0.32083E-06  6844   0.443E-03    0.172E-02
RMM:   7    -0.210084823869E+03    0.15899E-05   -0.24927E-06  6810   0.391E-03    0.731E-03
RMM:   8    -0.210084823592E+03    0.27655E-06   -0.63115E-07  6186   0.211E-03    0.507E-03
RMM:   9    -0.210084823410E+03    0.18161E-06   -0.10394E-07  3958   0.103E-03    0.235E-03
RMM:  10    -0.210084823375E+03    0.35545E-07   -0.52614E-08  3732   0.842E-04
  74 F= -.21008482E+03 E0= -.21008226E+03  d E =-.718378E-04  mag=     0.0000
       N       E                     dE             d eps       ncg     rms          rms(c)
DAV:   1    -0.210084566515E+03    0.25690E-03   -0.13309E-01  6912   0.105E+00    0.879E-02
RMM:   2    -0.210084903356E+03   -0.33684E-03   -0.29410E-03  6912   0.176E-01    0.116E-01
RMM:   3    -0.210084877332E+03    0.26024E-04   -0.20209E-04  7452   0.460E-02    0.102E-01
RMM:   4    -0.210084842646E+03    0.34686E-04   -0.38797E-05  6952   0.168E-02    0.642E-02
RMM:   5    -0.210084818355E+03    0.24291E-04   -0.18952E-05  6912   0.112E-02    0.375E-02
RMM:   6    -0.210084818194E+03    0.16089E-06   -0.13148E-05  6936   0.894E-03    0.335E-02
RMM:   7    -0.210084812310E+03    0.58842E-05   -0.96147E-06  6936   0.769E-03    0.147E-02
RMM:   8    -0.210084811265E+03    0.10446E-05   -0.24845E-06  6814   0.416E-03    0.972E-03
RMM:   9    -0.210084810607E+03    0.65892E-06   -0.44363E-07  5472   0.178E-03    0.429E-03
RMM:  10    -0.210084810465E+03    0.14148E-06   -0.14399E-07  4120   0.123E-03    0.333E-03
RMM:  11    -0.210084810386E+03    0.79244E-07   -0.15564E-07  4022   0.119E-03
  75 F= -.21008481E+03 E0= -.21008224E+03  d E =-.588487E-04  mag=    -0.0000
       N       E                     dE             d eps       ncg     rms          rms(c)
DAV:   1    -0.210084704010E+03    0.10646E-03   -0.67974E-02  6912   0.754E-01    0.622E-02
RMM:   2    -0.210084872068E+03   -0.16806E-03   -0.14943E-03  6912   0.125E-01    0.793E-02
RMM:   3    -0.210084862385E+03    0.96823E-05   -0.10219E-04  7480   0.327E-02    0.724E-02
RMM:   4    -0.210084844579E+03    0.17807E-04   -0.19132E-05  6948   0.119E-02    0.458E-02
RMM:   5    -0.210084832622E+03    0.11956E-04   -0.93465E-06  6888   0.792E-03    0.266E-02
RMM:   6    -0.210084833108E+03   -0.48536E-06   -0.67560E-06  6924   0.641E-03    0.263E-02
RMM:   7    -0.210084829987E+03    0.31209E-05   -0.51494E-06  6872   0.562E-03    0.127E-02
RMM:   8    -0.210084829562E+03    0.42433E-06   -0.14424E-06  6622   0.313E-03    0.102E-02
RMM:   9    -0.210084829017E+03    0.54541E-06   -0.31091E-07  4880   0.157E-03    0.324E-03
RMM:  10    -0.210084828956E+03    0.60807E-07   -0.10035E-07  3894   0.113E-03
  76 F= -.21008483E+03 E0= -.21008226E+03  d E =-.774191E-04  mag=    -0.0000
       N       E                     dE             d eps       ncg     rms          rms(c)
DAV:   1    -0.210084832552E+03   -0.35351E-05   -0.26541E-02  6912   0.471E-01    0.591E-02
RMM:   2    -0.210084910597E+03   -0.78045E-04   -0.70082E-04  6912   0.867E-02    0.717E-02
RMM:   3    -0.210084891109E+03    0.19488E-04   -0.57279E-05  7216   0.236E-02    0.523E-02
RMM:   4    -0.210084891102E+03    0.70740E-08   -0.13859E-05  6936   0.100E-02    0.516E-02
RMM:   5    -0.210084879043E+03    0.12059E-04   -0.70232E-06  6920   0.736E-03    0.299E-02
RMM:   6    -0.210084879300E+03   -0.25736E-06   -0.72792E-06  6942   0.705E-03    0.294E-02
RMM:   7    -0.210084875860E+03    0.34403E-05   -0.34406E-06  6942   0.476E-03    0.119E-02
RMM:   8    -0.210084875491E+03    0.36886E-06   -0.10610E-06  6448   0.275E-03    0.959E-03
RMM:   9    -0.210084875072E+03    0.41862E-06   -0.31737E-07  4950   0.157E-03    0.421E-03
RMM:  10    -0.210084875034E+03    0.38273E-07   -0.18012E-07  4128   0.142E-03
  77 F= -.21008488E+03 E0= -.21008231E+03  d E =-.460778E-04  mag=     0.0000
