unknown system                          
           1
    15.362318    0.000000   -1.143576
     0.000000    3.616418    0.000000
    -0.347038    0.000000   10.739025
   Sr   Ir   O 
   1  10  20
Direct configuration=     1
   0.74660000  0.50000000  0.12420000
   0.00000000  0.50000000  0.00000000
   0.50000000  0.00000000  0.00000000
   0.99978000  0.00000000  0.26820000
   0.49978000  0.50000000  0.26820000
   0.00022000  0.00000000  0.73180000
   0.50022000  0.50000000  0.73180000
   0.34010000  0.00000000  0.48410000
   0.84010000  0.50000000  0.48410000
   0.65990000  0.00000000  0.51590000
   0.15990000  0.50000000  0.51590000
   0.56690000  0.00000000  0.17730000
   0.06690000  0.50000000  0.17730000
   0.43310000  0.00000000  0.82270000
   0.93310000  0.50000000  0.82270000
   0.09760000  0.00000000  0.42440000
   0.59760000  0.50000000  0.42440000
   0.90240000  0.00000000  0.57560000
   0.40240000  0.50000000  0.57560000
   0.76630000  0.00000000  0.39580000
   0.26630000  0.50000000  0.39580000
   0.23370000  0.00000000  0.60420000
   0.73370000  0.50000000  0.60420000
   0.42480000  0.00000000  0.33540000
   0.92480000  0.50000000  0.33540000
   0.57520000  0.00000000  0.66460000
   0.07520000  0.50000000  0.66460000
   0.92630000  0.00000000  0.07210000
   0.42630000  0.50000000  0.07210000
   0.07370000  0.00000000  0.92790000
   0.57370000  0.50000000  0.92790000
unknown system                          
           1
    14.339982    0.000000   -0.745573
     0.000000    3.071441    0.000000
    -0.101583    0.000000    9.988577
   Sr   Ir   O 
   1  10  20
Direct configuration=     2
   0.74664163  0.50000000  0.12632070
   0.00571203  0.50000000 -0.00247353
   0.49292296  0.00000000 -0.00294303
   0.00691854  0.00000000  0.26829982
   0.49687720  0.50000000  0.27046865
  -0.00096375  0.00000000  0.73285776
   0.49647616  0.50000000  0.73163800
   0.34435817  0.00000000  0.47882079
   0.84624733  0.50000000  0.48582056
   0.65426756  0.00000000  0.52628527
   0.15532421  0.50000000  0.52150307
   0.58390321  0.00000000  0.17901143
   0.07496806  0.50000000  0.17968265
   0.42530028  0.00000000  0.82056995
   0.92296136  0.50000000  0.82065392
   0.08731036  0.00000000  0.41188945
   0.58761290  0.50000000  0.41050751
   0.91225337  0.00000000  0.58745289
   0.41266526  0.50000000  0.58836691
   0.76347316  0.00000000  0.36934626
   0.26438782  0.50000000  0.38077073
   0.23571267  0.00000000  0.61912652
   0.73547481  0.50000000  0.62068073
   0.42198618  0.00000000  0.33924863
   0.91856645  0.50000000  0.33761845
   0.57968961  0.00000000  0.65985534
   0.07881055  0.50000000  0.65983963
   0.90992246  0.00000000  0.08811188
   0.41948777  0.50000000  0.08685316
   0.08053341  0.00000000  0.91338561
   0.58679828  0.50000000  0.91463031
unknown system                          
           1
    14.278062    0.000000   -0.721467
     0.000000    3.038434    0.000000
    -0.086716    0.000000    9.943124
   Sr   Ir   O 
   1  10  20
Direct configuration=     3
   0.74658432  0.50000000  0.12496444
   0.00208394  0.50000000 -0.00106472
   0.49750477  0.00000000 -0.00084996
   0.00233832  0.00000000  0.26802155
   0.49870636  0.50000000  0.26910634
  -0.00021974  0.00000000  0.73221748
   0.49887986  0.50000000  0.73185400
   0.34170311  0.00000000  0.48206596
   0.84227950  0.50000000  0.48453651
   0.65773040  0.00000000  0.51981891
   0.15817832  0.50000000  0.51806052
   0.57297237  0.00000000  0.17740703
   0.06975868  0.50000000  0.17791785
   0.43033389  0.00000000  0.82216529
   0.92949399  0.50000000  0.82226588
   0.09409088  0.00000000  0.42019215
   0.59421931  0.50000000  0.41968410
   0.90576217  0.00000000  0.57958351
   0.40589668  0.50000000  0.57990114
   0.76566817  0.00000000  0.38633362
   0.26583125  0.50000000  0.39043103
   0.23420626  0.00000000  0.60952885
   0.73409854  0.50000000  0.61009716
   0.42373546  0.00000000  0.33687412
   0.92253273  0.50000000  0.33638829
   0.57687838  0.00000000  0.66275201
   0.07656340  0.50000000  0.66277275
   0.92019617  0.00000000  0.07837330
   0.42364430  0.50000000  0.07763142
   0.07635985  0.00000000  0.92245415
   0.57858836  0.50000000  0.92271532
unknown system                          
           1
    14.259644    0.000000   -0.714297
     0.000000    3.028616    0.000000
    -0.082294    0.000000    9.929605
   Sr   Ir   O 
   1  10  20
Direct configuration=     4
   0.74658196  0.50000000  0.12487635
   0.00184717  0.50000000 -0.00096549
   0.49779989  0.00000000 -0.00072340
   0.00204148  0.00000000  0.26801303
   0.49882638  0.50000000  0.26901390
  -0.00017083  0.00000000  0.73217428
   0.49903557  0.50000000  0.73186302
   0.34152761  0.00000000  0.48228258
   0.84202339  0.50000000  0.48446129
   0.65796153  0.00000000  0.51939108
   0.15836693  0.50000000  0.51783064
   0.57226490  0.00000000  0.17732554
   0.06942252  0.50000000  0.17781396
   0.43065882  0.00000000  0.82225852
   0.92991614  0.50000000  0.82235706
   0.09452239  0.00000000  0.42071799
   0.59463865  0.50000000  0.42026714
   0.90534900  0.00000000  0.57908524
   0.40546611  0.50000000  0.57936467
   0.76579349  0.00000000  0.38743393
   0.26591518  0.50000000  0.39105633
   0.23411819  0.00000000  0.60890775
   0.73401989  0.50000000  0.60941166
   0.42385132  0.00000000  0.33671602
   0.92279126  0.50000000  0.33629998
   0.57669311  0.00000000  0.66294629
   0.07641467  0.50000000  0.66296822
   0.92087242  0.00000000  0.07771839
   0.42392321  0.50000000  0.07702292
   0.07607999  0.00000000  0.92305272
   0.57804765  0.50000000  0.92325836
unknown system                          
           1
    13.830289    0.000000   -0.823516
     0.000000    3.097867    0.000000
    -0.162556    0.000000    9.796134
   Sr   Ir   O 
   1  10  20
Direct configuration=     5
   0.74658129  0.50000000  0.12485003
   0.00177641  0.50000000 -0.00093570
   0.49788801  0.00000000 -0.00068578
   0.00195281  0.00000000  0.26801067
   0.49886227  0.50000000  0.26898621
  -0.00015621  0.00000000  0.73216134
   0.49908208  0.50000000  0.73186562
   0.34147512  0.00000000  0.48234742
   0.84194691  0.50000000  0.48443898
   0.65803071  0.00000000  0.51926311
   0.15842334  0.50000000  0.51776183
   0.57205357  0.00000000  0.17730164
   0.06932213  0.50000000  0.17778313
   0.43075586  0.00000000  0.82228618
   0.93004222  0.50000000  0.82238404
   0.09465114  0.00000000  0.42087483
   0.59476374  0.50000000  0.42044109
   0.90522572  0.00000000  0.57893663
   0.40533764  0.50000000  0.57920465
   0.76583059  0.00000000  0.38776261
   0.26594006  0.50000000  0.39124312
   0.23409206  0.00000000  0.60872223
   0.73399661  0.50000000  0.60920689
   0.42388598  0.00000000  0.33666871
   0.92286852  0.50000000  0.33627343
   0.57663770  0.00000000  0.66300446
   0.07637019  0.50000000  0.66302672
   0.92107463  0.00000000  0.07752229
   0.42400671  0.50000000  0.07684094
   0.07599621  0.00000000  0.92323174
   0.57788596  0.50000000  0.92342096
unknown system                          
           1
    13.806204    0.000000   -0.829643
     0.000000    3.101752    0.000000
    -0.167059    0.000000    9.788647
   Sr   Ir   O 
   1  10  20
Direct configuration=     6
   0.74671413  0.50000000  0.12764625
   0.00285689  0.50000000 -0.00084451
   0.49610220  0.00000000 -0.00081461
   0.00328057  0.00000000  0.26674470
   0.49729848  0.50000000  0.26655596
   0.00067099  0.00000000  0.73433042
   0.49962549  0.50000000  0.73354283
   0.34037277  0.00000000  0.48434375
   0.84110519  0.50000000  0.48826779
   0.65934420  0.00000000  0.51713389
   0.15948707  0.50000000  0.51533135
   0.57596321  0.00000000  0.18016699
   0.06884821  0.50000000  0.18112748
   0.43097103  0.00000000  0.81796678
   0.92993073  0.50000000  0.81867267
   0.09372222  0.00000000  0.42149939
   0.59374777  0.50000000  0.42057708
   0.90673025  0.00000000  0.57947847
   0.40646259  0.50000000  0.57908463
   0.76546457  0.00000000  0.38265114
   0.26621934  0.50000000  0.39243719
   0.23381076  0.00000000  0.60754670
   0.73355178  0.50000000  0.60947144
   0.42684875  0.00000000  0.33506759
   0.92438016  0.50000000  0.33225843
   0.57328197  0.00000000  0.66608417
   0.07314809  0.50000000  0.66490092
   0.91868235  0.00000000  0.08200772
   0.42644402  0.50000000  0.08119101
   0.07350288  0.00000000  0.91872710
   0.57803136  0.50000000  0.92104525
unknown system                          
           1
    13.474986    0.000000   -0.795188
     0.000000    3.133593    0.000000
    -0.136523    0.000000    9.823593
   Sr   Ir   O 
   1  10  20
Direct configuration=     7
   0.74672276  0.50000000  0.12780543
   0.00291942  0.50000000 -0.00083848
   0.49599885  0.00000000 -0.00082332
   0.00335696  0.00000000  0.26667370
   0.49720720  0.50000000  0.26641649
   0.00071956  0.00000000  0.73445445
   0.49965748  0.50000000  0.73363867
   0.34030967  0.00000000  0.48445646
   0.84105778  0.50000000  0.48848495
   0.65941947  0.00000000  0.51701378
   0.15954779  0.50000000  0.51519390
   0.57619034  0.00000000  0.18033301
   0.06882192  0.50000000  0.18131738
   0.43098203  0.00000000  0.81772122
   0.92992304  0.50000000  0.81846144
   0.09366869  0.00000000  0.42153420
   0.59368905  0.50000000  0.42058403
   0.90681747  0.00000000  0.57951046
   0.40652762  0.50000000  0.57907868
   0.76544169  0.00000000  0.38236007
   0.26623590  0.50000000  0.39250534
   0.23379409  0.00000000  0.60747961
   0.73352613  0.50000000  0.60948615
   0.42701960  0.00000000  0.33497879
   0.92446626  0.50000000  0.33203119
   0.57308888  0.00000000  0.66625678
   0.07296233  0.50000000  0.66500505
   0.91854546  0.00000000  0.08226105
   0.42658647  0.50000000  0.08144037
   0.07335714  0.00000000  0.91846891
   0.57803898  0.50000000  0.92091021
unknown system                          
           1
    13.471480    0.000000   -0.794824
     0.000000    3.133930    0.000000
    -0.136200    0.000000    9.823963
   Sr   Ir   O 
   1  10  20
Direct configuration=     8
   0.74712625  0.50000000  0.13250900
   0.00145460  0.50000000 -0.00058682
   0.49706797  0.00000000  0.00014172
   0.00194815  0.00000000  0.26579118
   0.49894035  0.50000000  0.26639265
   0.00129353  0.00000000  0.73405655
   0.50148727  0.50000000  0.73497821
   0.34363241  0.00000000  0.48340670
   0.84257454  0.50000000  0.48511731
   0.65761398  0.00000000  0.51737256
   0.15629251  0.50000000  0.51699162
   0.58019855  0.00000000  0.18477334
   0.07059561  0.50000000  0.18686355
   0.42906054  0.00000000  0.81065705
   0.92895548  0.50000000  0.81295541
   0.09542256  0.00000000  0.42569887
   0.59386785  0.50000000  0.42329838
   0.90657922  0.00000000  0.57788532
   0.40566374  0.50000000  0.57597323
   0.76616807  0.00000000  0.37648888
   0.26750247  0.50000000  0.39122203
   0.23244816  0.00000000  0.60856959
   0.73185295  0.50000000  0.61289677
   0.42851571  0.00000000  0.33429323
   0.92512275  0.50000000  0.32867325
   0.57105643  0.00000000  0.66689900
   0.07060375  0.50000000  0.66555678
   0.91589731  0.00000000  0.08387695
   0.42776643  0.50000000  0.08204854
   0.07206962  0.00000000  0.91785584
   0.57782122  0.50000000  0.92154332
unknown system                          
           1
    13.270914    0.000000   -0.785834
     0.000000    3.131727    0.000000
    -0.124616    0.000000    9.874812
   Sr   Ir   O 
   1  10  20
Direct configuration=     9
   0.74713051  0.50000000  0.13255860
   0.00143871  0.50000000 -0.00058415
   0.49707954  0.00000000  0.00015188
   0.00193289  0.00000000  0.26578190
   0.49895915  0.50000000  0.26639237
   0.00129977  0.00000000  0.73405234
   0.50150708  0.50000000  0.73499231
   0.34366847  0.00000000  0.48339558
   0.84259107  0.50000000  0.48508177
   0.65759439  0.00000000  0.51737638
   0.15625716  0.50000000  0.51701063
   0.58024191  0.00000000  0.18482010
   0.07061471  0.50000000  0.18692201
   0.42903987  0.00000000  0.81058258
   0.92894512  0.50000000  0.81289736
   0.09544148  0.00000000  0.42574276
   0.59386973  0.50000000  0.42332700
   0.90657667  0.00000000  0.57786819
   0.40565444  0.50000000  0.57594050
   0.76617609  0.00000000  0.37642695
   0.26751623  0.50000000  0.39120847
   0.23243354  0.00000000  0.60858111
   0.73183472  0.50000000  0.61293276
   0.42853195  0.00000000  0.33428598
   0.92512995  0.50000000  0.32863783
   0.57103437  0.00000000  0.66690580
   0.07057816  0.50000000  0.66556264
   0.91586855  0.00000000  0.08389403
   0.42777921  0.50000000  0.08205494
   0.07205567  0.00000000  0.91784940
   0.57781885  0.50000000  0.92155000
unknown system                          
           1
    13.276768    0.000000   -0.786097
     0.000000    3.131791    0.000000
    -0.124954    0.000000    9.873328
   Sr   Ir   O 
   1  10  20
Direct configuration=    10
   0.74765528  0.50000000  0.13808326
  -0.00065323  0.50000000  0.00103804
   0.49810765  0.00000000 -0.00235458
   0.00260199  0.00000000  0.26782443
   0.50211617  0.50000000  0.26689142
  -0.00047141  0.00000000  0.73304712
   0.50081266  0.50000000  0.73382789
   0.34284608  0.00000000  0.48132895
   0.84090254  0.50000000  0.48061233
   0.65842127  0.00000000  0.51999866
   0.15785448  0.50000000  0.52029974
   0.58311462  0.00000000  0.18690736
   0.07257895  0.50000000  0.18819209
   0.42758241  0.00000000  0.80967856
   0.92818098  0.50000000  0.81065055
   0.09347387  0.00000000  0.42535258
   0.59391512  0.50000000  0.42632359
   0.90609650  0.00000000  0.57473808
   0.40744278  0.50000000  0.57555349
   0.76701120  0.00000000  0.37257823
   0.26875864  0.50000000  0.39143066
   0.23113385  0.00000000  0.60860918
   0.73053301  0.50000000  0.61489667
   0.42989871  0.00000000  0.33268831
   0.92505626  0.50000000  0.32675249
   0.57091462  0.00000000  0.66567364
   0.06941987  0.50000000  0.66577010
   0.91307675  0.00000000  0.08319137
   0.42840597  0.50000000  0.08119016
   0.07154439  0.00000000  0.91999753
   0.57826802  0.50000000  0.92342809
unknown system                          
           1
    13.195597    0.000000   -0.826674
     0.000000    3.135283    0.000000
    -0.152126    0.000000    9.911169
   Sr   Ir   O 
   1  10  20
Direct configuration=    11
   0.74763988  0.50000000  0.13792285
  -0.00059121  0.50000000  0.00099096
   0.49807712  0.00000000 -0.00228182
   0.00258222  0.00000000  0.26776512
   0.50202265  0.50000000  0.26687690
  -0.00041897  0.00000000  0.73307632
   0.50083320  0.50000000  0.73386170
   0.34287039  0.00000000  0.48138896
   0.84095245  0.50000000  0.48074211
   0.65839684  0.00000000  0.51992252
   0.15780724  0.50000000  0.52020423
   0.58302956  0.00000000  0.18684673
   0.07252079  0.50000000  0.18815520
   0.42762557  0.00000000  0.80970482
   0.92820356  0.50000000  0.81071579
   0.09353215  0.00000000  0.42536392
   0.59391386  0.50000000  0.42623659
   0.90611064  0.00000000  0.57482896
   0.40738979  0.50000000  0.57556472
   0.76698635  0.00000000  0.37268997
   0.26872184  0.50000000  0.39142420
   0.23117236  0.00000000  0.60860838
   0.73057163  0.50000000  0.61483966
   0.42985818  0.00000000  0.33273468
   0.92505839  0.50000000  0.32680723
   0.57091814  0.00000000  0.66570942
   0.06945419  0.50000000  0.66576408
   0.91315944  0.00000000  0.08321179
   0.42838738  0.50000000  0.08121526
   0.07155959  0.00000000  0.91993516
   0.57825476  0.50000000  0.92337356
unknown system                          
           1
    13.158566    0.000000   -0.845186
     0.000000    3.136876    0.000000
    -0.164521    0.000000    9.928432
   Sr   Ir   O 
   1  10  20
Direct configuration=    12
   0.74833881  0.50000000  0.14432892
  -0.00283493  0.50000000  0.00213147
   0.49863415  0.00000000 -0.00240701
   0.00312241  0.00000000  0.26538359
   0.50432065  0.50000000  0.26510280
  -0.00217170  0.00000000  0.73404856
   0.50016015  0.50000000  0.73413031
   0.34344698  0.00000000  0.48051201
   0.83794925  0.50000000  0.47808806
   0.66060932  0.00000000  0.52079950
   0.15746776  0.50000000  0.51987103
   0.58566255  0.00000000  0.18592002
   0.07440129  0.50000000  0.18736233
   0.42618835  0.00000000  0.81164994
   0.92703014  0.50000000  0.81175646
   0.09289857  0.00000000  0.42746140
   0.59447264  0.50000000  0.43009196
   0.90483621  0.00000000  0.56997109
   0.40857386  0.50000000  0.57380342
   0.76688665  0.00000000  0.36892380
   0.26889057  0.50000000  0.39054886
   0.23165628  0.00000000  0.61061400
   0.73074424  0.50000000  0.61731185
   0.43099591  0.00000000  0.33117985
   0.92429426  0.50000000  0.32598281
   0.57129032  0.00000000  0.66508754
   0.06879927  0.50000000  0.66588876
   0.91032567  0.00000000  0.08313819
   0.42987649  0.50000000  0.08054659
   0.07027989  0.00000000  0.92179149
   0.57945399  0.50000000  0.92318042
unknown system                          
           1
    13.076304    0.000000   -0.841980
     0.000000    3.124381    0.000000
    -0.165045    0.000000    9.866609
   Sr   Ir   O 
   1  10  20
Direct configuration=    13
   0.74866554  0.50000000  0.14724222
  -0.00386384  0.50000000  0.00264515
   0.49888973  0.00000000 -0.00246275
   0.00336818  0.00000000  0.26430222
   0.50537388  0.50000000  0.26430122
  -0.00297538  0.00000000  0.73448679
   0.49985144  0.50000000  0.73425099
   0.34371085  0.00000000  0.48011461
   0.83656822  0.50000000  0.47687537
   0.66162574  0.00000000  0.52120278
   0.15731162  0.50000000  0.51971887
   0.58687034  0.00000000  0.18550433
   0.07526379  0.50000000  0.18700589
   0.42553041  0.00000000  0.81253105
   0.92649246  0.50000000  0.81222703
   0.09260967  0.00000000  0.42841346
   0.59473268  0.50000000  0.43184556
   0.90424674  0.00000000  0.56776030
   0.40911578  0.50000000  0.57300532
   0.76683741  0.00000000  0.36721170
   0.26896722  0.50000000  0.39015133
   0.23188026  0.00000000  0.61152666
   0.73082575  0.50000000  0.61843593
   0.43151674  0.00000000  0.33047550
   0.92394273  0.50000000  0.32560646
   0.57146060  0.00000000  0.66480565
   0.06849876  0.50000000  0.66594405
   0.90902479  0.00000000  0.08309878
   0.43055944  0.50000000  0.08024579
   0.06969417  0.00000000  0.92263258
   0.58000430  0.50000000  0.92309515
unknown system                          
           1
    13.089858    0.000000   -0.842508
     0.000000    3.126440    0.000000
    -0.164959    0.000000    9.876796
   Sr   Ir   O 
   1  10  20
Direct configuration=    14
   0.74956136  0.50000000  0.15408568
  -0.00578815  0.50000000  0.00289165
   0.50037827  0.00000000 -0.00192063
   0.00341916  0.00000000  0.26351227
   0.50705945  0.50000000  0.26520389
  -0.00462682  0.00000000  0.73381381
   0.49998958  0.50000000  0.73579605
   0.34503946  0.00000000  0.47946500
   0.83522450  0.50000000  0.47599146
   0.66243680  0.00000000  0.52212435
   0.15674393  0.50000000  0.52100548
   0.58929410  0.00000000  0.18254027
   0.07686476  0.50000000  0.18500536
   0.42485435  0.00000000  0.81457783
   0.92476943  0.50000000  0.81528277
   0.09143679  0.00000000  0.42795411
   0.59477952  0.50000000  0.43317066
   0.90341536  0.00000000  0.56440138
   0.40962384  0.50000000  0.57046199
   0.76476814  0.00000000  0.36295555
   0.26778222  0.50000000  0.38905182
   0.23386458  0.00000000  0.61236529
   0.73351779  0.50000000  0.62161760
   0.43269324  0.00000000  0.32868831
   0.92313655  0.50000000  0.32427487
   0.57226086  0.00000000  0.66521865
   0.06771458  0.50000000  0.66613296
   0.90628280  0.00000000  0.08318075
   0.43256978  0.50000000  0.07985999
   0.06685402  0.00000000  0.92400818
   0.58067974  0.50000000  0.92148265
unknown system                          
           1
    13.137192    0.000000   -0.813655
     0.000000    3.136885    0.000000
    -0.143638    0.000000    9.879062
   Sr   Ir   O 
   1  10  20
Direct configuration=    15
   0.74941269  0.50000000  0.15295098
  -0.00546909  0.50000000  0.00285085
   0.50013145  0.00000000 -0.00201057
   0.00341072  0.00000000  0.26364324
   0.50677995  0.50000000  0.26505416
  -0.00435299  0.00000000  0.73392545
   0.49996664  0.50000000  0.73553987
   0.34481918  0.00000000  0.47957266
   0.83544731  0.50000000  0.47613806
   0.66230230  0.00000000  0.52197152
   0.15683803  0.50000000  0.52079218
   0.58889228  0.00000000  0.18303164
   0.07659935  0.50000000  0.18533700
   0.42496640  0.00000000  0.81423849
   0.92505506  0.50000000  0.81477617
   0.09163127  0.00000000  0.42803031
   0.59477173  0.50000000  0.43295095
   0.90355328  0.00000000  0.56495834
   0.40953965  0.50000000  0.57088367
   0.76511133  0.00000000  0.36366131
   0.26797872  0.50000000  0.38923417
   0.23353555  0.00000000  0.61222617
   0.73307137  0.50000000  0.62108997
   0.43249820  0.00000000  0.32898459
   0.92327024  0.50000000  0.32449568
   0.57212816  0.00000000  0.66515015
   0.06784460  0.50000000  0.66610167
   0.90673744  0.00000000  0.08316725
   0.43223646  0.50000000  0.07992389
   0.06732491  0.00000000  0.92378020
   0.58056778  0.50000000  0.92174999
unknown system                          
           1
    13.129459    0.000000   -0.818368
     0.000000    3.135178    0.000000
    -0.147121    0.000000    9.878692
   Sr   Ir   O 
   1  10  20
Direct configuration=    16
   0.75021701  0.50000000  0.15767294
  -0.00705903  0.50000000  0.00426183
   0.50205900  0.00000000 -0.00237600
   0.00306076  0.00000000  0.26257462
   0.50796084  0.50000000  0.26530602
  -0.00627214  0.00000000  0.73347972
   0.50009634  0.50000000  0.73545604
   0.34468665  0.00000000  0.47752083
   0.83556053  0.50000000  0.47545646
   0.66259187  0.00000000  0.52362686
   0.15698969  0.50000000  0.52182688
   0.59064865  0.00000000  0.18073008
   0.07779734  0.50000000  0.18406426
   0.42458633  0.00000000  0.81507673
   0.92271881  0.50000000  0.81642911
   0.09091585  0.00000000  0.42694999
   0.59474634  0.50000000  0.43284169
   0.90407234  0.00000000  0.56457437
   0.41084024  0.50000000  0.57050205
   0.76250162  0.00000000  0.36079400
   0.26675417  0.50000000  0.38853892
   0.23564125  0.00000000  0.61205504
   0.73600755  0.50000000  0.62385029
   0.43273525  0.00000000  0.32813918
   0.92264645  0.50000000  0.32304713
   0.57269340  0.00000000  0.66717154
   0.06698655  0.50000000  0.66678408
   0.90463084  0.00000000  0.08312358
   0.43359650  0.50000000  0.08059531
   0.06490752  0.00000000  0.92371907
   0.58128146  0.50000000  0.92040737
unknown system                          
           1
    13.184399    0.000000   -0.793421
     0.000000    3.117443    0.000000
    -0.129855    0.000000    9.864429
   Sr   Ir   O 
   1  10  20
Direct configuration=    17
   0.75008734  0.50000000  0.15690221
  -0.00679985  0.50000000  0.00403056
   0.50174514  0.00000000 -0.00231531
   0.00311744  0.00000000  0.26274896
   0.50776869  0.50000000  0.26526551
  -0.00595986  0.00000000  0.73355150
   0.50007520  0.50000000  0.73546980
   0.34470768  0.00000000  0.47785585
   0.83554192  0.50000000  0.47556784
   0.66254517  0.00000000  0.52335668
   0.15696528  0.50000000  0.52165798
   0.59036214  0.00000000  0.18110688
   0.07760200  0.50000000  0.18427274
   0.42464842  0.00000000  0.81493963
   0.92309954  0.50000000  0.81615794
   0.09103202  0.00000000  0.42712604
   0.59475045  0.50000000  0.43285952
   0.90398775  0.00000000  0.56463735
   0.41062843  0.50000000  0.57056505
   0.76292565  0.00000000  0.36126089
   0.26695332  0.50000000  0.38865182
   0.23529845  0.00000000  0.61208409
   0.73553035  0.50000000  0.62340105
   0.43269644  0.00000000  0.32827737
   0.92274761  0.50000000  0.32328337
   0.57260193  0.00000000  0.66684172
   0.06712640  0.50000000  0.66667219
   0.90497374  0.00000000  0.08312961
   0.43337529  0.50000000  0.08048638
   0.06530100  0.00000000  0.92372778
   0.58116493  0.50000000  0.92062701
unknown system                          
           1
    13.182151    0.000000   -0.794442
     0.000000    3.118169    0.000000
    -0.130562    0.000000    9.865013
   Sr   Ir   O 
   1  10  20
Direct configuration=    18
   0.75070920  0.50000000  0.15963585
  -0.00824887  0.50000000  0.00508073
   0.50302446  0.00000000 -0.00330492
   0.00305728  0.00000000  0.26104508
   0.50841428  0.50000000  0.26416818
  -0.00776054  0.00000000  0.73481683
   0.49983374  0.50000000  0.73534472
   0.34446061  0.00000000  0.47656469
   0.83595206  0.50000000  0.47523971
   0.66313789  0.00000000  0.52539056
   0.15707038  0.50000000  0.52169272
   0.59117158  0.00000000  0.18006979
   0.07798526  0.50000000  0.18412994
   0.42507202  0.00000000  0.81476808
   0.92110439  0.50000000  0.81656115
   0.09118045  0.00000000  0.42682926
   0.59548746  0.50000000  0.43337677
   0.90461667  0.00000000  0.56485277
   0.41135216  0.50000000  0.57007188
   0.76124703  0.00000000  0.36127697
   0.26631239  0.50000000  0.38871932
   0.23632903  0.00000000  0.61075427
   0.73709143  0.50000000  0.62405870
   0.43294883  0.00000000  0.32752462
   0.92264040  0.50000000  0.32161436
   0.57305535  0.00000000  0.66935926
   0.06616489  0.50000000  0.66753997
   0.90371991  0.00000000  0.08332678
   0.43503453  0.50000000  0.08137309
   0.06285033  0.00000000  0.92292118
   0.58158540  0.50000000  0.91939771
unknown system                          
           1
    13.258197    0.000000   -0.799779
     0.000000    3.116563    0.000000
    -0.135020    0.000000    9.869798
   Sr   Ir   O 
   1  10  20
Direct configuration=    19
   0.75068400  0.50000000  0.15952389
  -0.00818975  0.50000000  0.00503752
   0.50297226  0.00000000 -0.00326421
   0.00305964  0.00000000  0.26111490
   0.50838791  0.50000000  0.26421323
  -0.00768708  0.00000000  0.73476476
   0.49984357  0.50000000  0.73534982
   0.34447061  0.00000000  0.47661757
   0.83593532  0.50000000  0.47525321
   0.66311384  0.00000000  0.52530728
   0.15706610  0.50000000  0.52169131
   0.59113854  0.00000000  0.18011238
   0.07796963  0.50000000  0.18413584
   0.42505475  0.00000000  0.81477516
   0.92118573  0.50000000  0.81654440
   0.09117438  0.00000000  0.42684144
   0.59545745  0.50000000  0.43335566
   0.90459105  0.00000000  0.56484402
   0.41132264  0.50000000  0.57009217
   0.76131545  0.00000000  0.36127611
   0.26633851  0.50000000  0.38871648
   0.23628695  0.00000000  0.61080889
   0.73702784  0.50000000  0.62403193
   0.43293850  0.00000000  0.32755550
   0.92264468  0.50000000  0.32168275
   0.57303700  0.00000000  0.66925614
   0.06620413  0.50000000  0.66750429
   0.90377102  0.00000000  0.08331855
   0.43496695  0.50000000  0.08133695
   0.06295017  0.00000000  0.92295395
   0.58156820  0.50000000  0.91944814
unknown system                          
           1
    13.281010    0.000000   -0.801380
     0.000000    3.116081    0.000000
    -0.136358    0.000000    9.871234
   Sr   Ir   O 
   1  10  20
Direct configuration=    20
   0.75101491  0.50000000  0.16056904
  -0.00951657  0.50000000  0.00511025
   0.50350360  0.00000000 -0.00374795
   0.00363863  0.00000000  0.26101381
   0.50935320  0.50000000  0.26474766
  -0.00875379  0.00000000  0.73520051
   0.49953631  0.50000000  0.73542574
   0.34527924  0.00000000  0.47640073
   0.83645246  0.50000000  0.47537414
   0.66350263  0.00000000  0.52665447
   0.15628143  0.50000000  0.52180026
   0.59150068  0.00000000  0.17964909
   0.07833702  0.50000000  0.18396913
   0.42530502  0.00000000  0.81423181
   0.91927330  0.50000000  0.81720714
   0.09106882  0.00000000  0.42594453
   0.59608864  0.50000000  0.43378851
   0.90499953  0.00000000  0.56488305
   0.41134915  0.50000000  0.56916830
   0.76089484  0.00000000  0.36328275
   0.26609974  0.50000000  0.38876907
   0.23618107  0.00000000  0.60939186
   0.73750356  0.50000000  0.62386163
   0.43328774  0.00000000  0.32671855
   0.92253479  0.50000000  0.32031630
   0.57401578  0.00000000  0.67075488
   0.06565533  0.50000000  0.66806302
   0.90284265  0.00000000  0.08390357
   0.43633119  0.50000000  0.08120551
   0.06105283  0.00000000  0.92256607
   0.58198628  0.50000000  0.91797659
unknown system                          
           1
    13.307971    0.000000   -0.802436
     0.000000    3.113240    0.000000
    -0.139037    0.000000    9.844440
   Sr   Ir   O 
   1  10  20
Direct configuration=    21
   0.75111372  0.50000000  0.16088244
  -0.00991232  0.50000000  0.00513203
   0.50366203  0.00000000 -0.00389298
   0.00381131  0.00000000  0.26098351
   0.50964117  0.50000000  0.26490793
  -0.00907191  0.00000000  0.73533114
   0.49944467  0.50000000  0.73544849
   0.34552041  0.00000000  0.47633572
   0.83660672  0.50000000  0.47541041
   0.66361873  0.00000000  0.52705844
   0.15604739  0.50000000  0.52183291
   0.59160865  0.00000000  0.17951018
   0.07844658  0.50000000  0.18391916
   0.42537961  0.00000000  0.81406889
   0.91870295  0.50000000  0.81740583
   0.09103724  0.00000000  0.42567559
   0.59627694  0.50000000  0.43391832
   0.90512137  0.00000000  0.56489476
   0.41135697  0.50000000  0.56889127
   0.76076959  0.00000000  0.36388444
   0.26602852  0.50000000  0.38878483
   0.23614935  0.00000000  0.60896696
   0.73764544  0.50000000  0.62381057
   0.43339182  0.00000000  0.32646760
   0.92250188  0.50000000  0.31990657
   0.57430787  0.00000000  0.67120430
   0.06549169  0.50000000  0.66823055
   0.90256580  0.00000000  0.08407897
   0.43673809  0.50000000  0.08116612
   0.06048687  0.00000000  0.92244972
   0.58211084  0.50000000  0.91753535
unknown system                          
           1
    13.312261    0.000000   -0.802604
     0.000000    3.112788    0.000000
    -0.139463    0.000000    9.840177
   Sr   Ir   O 
   1  10  20
Direct configuration=    22
   0.75135147  0.50000000  0.16139176
  -0.01117298  0.50000000  0.00571050
   0.50424776  0.00000000 -0.00466545
   0.00426240  0.00000000  0.26059022
   0.51072831  0.50000000  0.26581956
  -0.01002332  0.00000000  0.73478298
   0.49965321  0.50000000  0.73437074
   0.34564376  0.00000000  0.47567954