unknown system                          
           1
    13.063925    0.000000   -0.586688
     0.000000    3.145915    0.000000
     0.007646    0.000000    9.608663
   Sr   Ir   O 
   2  10  20
Direct configuration=     1
   0.75811947  0.50000000  0.15278029
   0.24188053  0.50000000  0.84721971
   0.00000000  0.50000000  0.00000000
   0.50000000  0.00000000  0.00000000
   0.01487915  0.00000000  0.25643007
   0.50891150  0.50000000  0.25416913
   0.98512085  0.00000000  0.74356993
   0.49108850  0.50000000  0.74583087
   0.34301375  0.00000000  0.47608701
   0.84125900  0.50000000  0.47727627
   0.65698625  0.00000000  0.52391299
   0.15874100  0.50000000  0.52272373
   0.59804796  0.00000000  0.17337226
   0.09361218  0.50000000  0.17606342
   0.40195204  0.00000000  0.82662774
   0.90638782  0.50000000  0.82393658
   0.09724006  0.00000000  0.42630301
   0.59576204  0.50000000  0.42394104
   0.90275994  0.00000000  0.57369699
   0.40423796  0.50000000  0.57605896
   0.76742015  0.00000000  0.36860507
   0.26949265  0.50000000  0.38033396
   0.23257985  0.00000000  0.63139493
   0.73050735  0.50000000  0.61966604
   0.43316732  0.00000000  0.32115207
   0.93130273  0.50000000  0.31637592
   0.56683268  0.00000000  0.67884793
   0.06869727  0.50000000  0.68362408
   0.91234643  0.00000000  0.07680272
   0.41516349  0.50000000  0.07154842
   0.08765357  0.00000000  0.92319728
   0.58483651  0.50000000  0.92845158
