   28   28  901    2
  0.1766632E+02  0.5555401E-09  0.5635416E-09  0.1580020E-08  0.5000000E-15
  1.000000000000000E-004
  CAR 
 SrIr2O4 prototype                       
    208     20    136
 
  0.3742002E-15  0.3742002E-15  0.1262379E-14  0.3125000E-01
    1      -31.161976    -31.161976   1.000000   1.000000
    2      -31.152087    -31.152087   1.000000   1.000000
    3      -31.094156    -31.094156   1.000000   1.000000
    4      -31.086199    -31.086199   1.000000   1.000000
    5      -17.409270    -17.409270   1.000000   1.000000
    6      -17.337996    -17.337996   1.000000   1.000000
    7      -17.038428    -17.038428   1.000000   1.000000
    8      -16.598684    -16.598684   1.000000   1.000000
    9      -16.380146    -16.380146   1.000000   1.000000
   10      -16.375849    -16.375849   1.000000   1.000000
   11      -16.233072    -16.233072   1.000000   1.000000
   12      -16.047483    -16.047483   1.000000   1.000000
   13      -16.042067    -16.042067   1.000000   1.000000
   14      -15.823692    -15.823692   1.000000   1.000000
   15      -15.811116    -15.811116   1.000000   1.000000
   16      -15.799522    -15.799522   1.000000   1.000000
   17      -15.710953    -15.710953   1.000000   1.000000
   18      -15.648573    -15.648573   1.000000   1.000000
   19      -15.064731    -15.064731   1.000000   1.000000
   20      -14.932653    -14.932653   1.000000   1.000000
   21      -13.343196    -13.343196   1.000000   1.000000
   22      -13.246603    -13.246603   1.000000   1.000000
   23      -13.215291    -13.215291   1.000000   1.000000
   24      -13.205274    -13.205274   1.000000   1.000000
   25      -13.181028    -13.181028   1.000000   1.000000
   26      -13.168494    -13.168494   1.000000   1.000000
   27      -13.145046    -13.145046   1.000000   1.000000
   28      -13.141997    -13.141997   1.000000   1.000000
   29      -13.023833    -13.023833   1.000000   1.000000
   30      -12.997673    -12.997673   1.000000   1.000000
   31      -12.814046    -12.814046   1.000000   1.000000
   32      -12.694169    -12.694169   1.000000   1.000000
   33       -6.181644     -6.181644   1.000000   1.000000
   34       -6.154287     -6.154287   1.000000   1.000000
   35       -6.112837     -6.112837   1.000000   1.000000
   36       -6.101946     -6.101946   1.000000   1.000000
   37       -6.030156     -6.030156   1.000000   1.000000
   38       -5.801983     -5.801983   1.000000   1.000000
   39       -5.435537     -5.435537   1.000000   1.000000
   40       -5.051567     -5.051567   1.000000   1.000000
   41       -4.464192     -4.464192   1.000000   1.000000
   42       -4.327447     -4.327447   1.000000   1.000000
   43       -3.907994     -3.907994   1.000000   1.000000
   44       -3.729703     -3.729703   1.000000   1.000000
   45       -2.773576     -2.773576   1.000000   1.000000
   46       -2.695878     -2.695878   1.000000   1.000000
   47       -2.655478     -2.655478   1.000000   1.000000
   48       -2.603451     -2.603451   1.000000   1.000000
   49       -2.585449     -2.585449   1.000000   1.000000
   50       -2.358361     -2.358361   1.000000   1.000000
   51       -2.333659     -2.333659   1.000000   1.000000
   52       -2.328218     -2.328218   1.000000   1.000000
   53       -2.297499     -2.297499   1.000000   1.000000
   54       -2.241683     -2.241683   1.000000   1.000000
   55       -2.229654     -2.229654   1.000000   1.000000
   56       -2.173823     -2.173823   1.000000   1.000000
   57       -2.016376     -2.016376   1.000000   1.000000
   58       -1.933672     -1.933672   1.000000   1.000000
   59       -1.869056     -1.869056   1.000000   1.000000
   60       -1.695279     -1.695279   1.000000   1.000000
   61       -1.638225     -1.638225   1.000000   1.000000
   62       -1.527457     -1.527457   1.000000   1.000000
   63       -1.070257     -1.070257   1.000000   1.000000
   64       -0.973023     -0.973023   1.000000   1.000000
   65       -0.635723     -0.635723   1.000000   1.000000
   66       -0.469669     -0.469669   1.000000   1.000000
   67       -0.279482     -0.279482   1.000000   1.000000
   68       -0.192898     -0.192898   1.000000   1.000000
   69       -0.164507     -0.164507   1.000000   1.000000
   70       -0.080426     -0.080426   1.000000   1.000000
   71        0.111815      0.111815   1.000000   1.000000
   72        0.120202      0.120202   1.000000   1.000000
   73        0.124704      0.124704   1.000000   1.000000
   74        0.190149      0.190149   1.000000   1.000000
   75        0.231442      0.231442   1.000000   1.000000
   76        0.285922      0.285922   1.000000   1.000000
   77        0.288769      0.288769   1.000000   1.000000
   78        0.386838      0.386838   1.000000   1.000000
   79        0.397454      0.397454   1.000000   1.000000
   80        0.580060      0.580060   1.000000   1.000000
   81        0.591532      0.591532   1.000000   1.000000
   82        0.679760      0.679760   1.000000   1.000000
   83        0.709631      0.709631   1.000000   1.000000
   84        0.869693      0.869693   1.000000   1.000000
   85        0.897703      0.897703   1.000000   1.000000
   86        0.930292      0.930292   1.000000   1.000000
   87        1.058990      1.058990   1.000000   1.000000
   88        1.075925      1.075925   1.000000   1.000000
   89        1.124896      1.124896   1.000000   1.000000
   90        1.223304      1.223304   1.000000   1.000000
   91        1.295100      1.295100   1.000000   1.000000
   92        1.322749      1.322749   1.000000   1.000000
   93        1.358790      1.358790   1.000000   1.000000
   94        1.401986      1.401986   1.000000   1.000000
   95        1.434023      1.434023   1.000000   1.000000
   96        1.756458      1.756458   1.000000   1.000000
   97        1.887216      1.887216   1.000000   1.000000
   98        2.009108      2.009108   1.000000   1.000000
   99        2.210799      2.210799   1.000000   1.000000
  100        2.553001      2.553001   1.000000   1.000000
  101        2.645798      2.645798   1.000000   1.000000
  102        3.337823      3.337823   1.040212   1.040212
  103        3.357384      3.357384   1.019711   1.019711
  104        3.594978      3.594978   0.065440   0.065440
  105        3.960039      3.960039   0.003364   0.003364
  106        3.976652      3.976652   0.002748   0.002748
  107        4.046681      4.046681   0.000865   0.000865
  108        4.190048      4.190048   0.000025   0.000025
  109        4.304109      4.304109   0.000001   0.000001
  110        4.343544      4.343544   0.000000   0.000000
  111        4.675861      4.675861   0.000000   0.000000
  112        4.748174      4.748174   0.000000   0.000000
  113        4.953061      4.953061   0.000000   0.000000
  114        4.963191      4.963191   0.000000   0.000000
  115        4.980303      4.980303   0.000000   0.000000
  116        5.236910      5.236910   0.000000   0.000000
  117        5.393994      5.393994   0.000000   0.000000
  118        5.505665      5.505665   0.000000   0.000000
  119        6.147732      6.147732   0.000000   0.000000
  120        7.187343      7.187343   0.000000   0.000000
  121        7.311367      7.311367   0.000000   0.000000
  122        7.728450      7.728450   0.000000   0.000000
  123        7.783313      7.783313   0.000000   0.000000
  124        7.840271      7.840271   0.000000   0.000000
  125        7.943986      7.943986   0.000000   0.000000
  126        8.116362      8.116362   0.000000   0.000000
  127        8.561750      8.561750   0.000000   0.000000
  128        9.159875      9.159875   0.000000   0.000000
  129        9.438871      9.438871   0.000000   0.000000
  130        9.521305      9.521305   0.000000   0.000000
  131        9.693045      9.693045   0.000000   0.000000
  132        9.715890      9.715890   0.000000   0.000000
  133       10.037262     10.037262   0.000000   0.000000
  134       10.067090     10.067090   0.000000   0.000000
  135       10.236127     10.236127   0.000000   0.000000
  136       10.415785     10.415785   0.000000   0.000000
 
  0.2500000E+00  0.3742002E-15  0.1262379E-14  0.6250000E-01
    1      -31.151800    -31.151800   1.000000   1.000000
    2      -31.142342    -31.142342   1.000000   1.000000
    3      -31.103627    -31.103627   1.000000   1.000000
    4      -31.095634    -31.095634   1.000000   1.000000
    5      -17.211155    -17.211155   1.000000   1.000000
    6      -17.152340    -17.152340   1.000000   1.000000
    7      -16.911325    -16.911325   1.000000   1.000000
    8      -16.399445    -16.399445   1.000000   1.000000
    9      -16.338760    -16.338760   1.000000   1.000000
   10      -16.318694    -16.318694   1.000000   1.000000
   11      -16.221736    -16.221736   1.000000   1.000000
   12      -16.188792    -16.188792   1.000000   1.000000
   13      -16.093031    -16.093031   1.000000   1.000000
   14      -16.072522    -16.072522   1.000000   1.000000
   15      -16.007813    -16.007813   1.000000   1.000000
   16      -15.873144    -15.873144   1.000000   1.000000
   17      -15.730413    -15.730413   1.000000   1.000000
   18      -15.708541    -15.708541   1.000000   1.000000
   19      -15.237211    -15.237211   1.000000   1.000000
   20      -15.192872    -15.192872   1.000000   1.000000
   21      -13.354481    -13.354481   1.000000   1.000000
   22      -13.339952    -13.339952   1.000000   1.000000
   23      -13.278556    -13.278556   1.000000   1.000000
   24      -13.273227    -13.273227   1.000000   1.000000
   25      -13.237157    -13.237157   1.000000   1.000000
   26      -13.171254    -13.171254   1.000000   1.000000
   27      -13.069203    -13.069203   1.000000   1.000000
   28      -13.058794    -13.058794   1.000000   1.000000
   29      -12.965823    -12.965823   1.000000   1.000000
   30      -12.955186    -12.955186   1.000000   1.000000
   31      -12.813783    -12.813783   1.000000   1.000000
   32      -12.714228    -12.714228   1.000000   1.000000
   33       -5.672404     -5.672404   1.000000   1.000000
   34       -5.652825     -5.652825   1.000000   1.000000
   35       -5.590898     -5.590898   1.000000   1.000000
   36       -5.577893     -5.577893   1.000000   1.000000
   37       -5.524333     -5.524333   1.000000   1.000000
   38       -5.176030     -5.176030   1.000000   1.000000
   39       -5.012400     -5.012400   1.000000   1.000000
   40       -4.678798     -4.678798   1.000000   1.000000
   41       -4.122688     -4.122688   1.000000   1.000000
   42       -4.036813     -4.036813   1.000000   1.000000
   43       -3.570640     -3.570640   1.000000   1.000000
   44       -3.523347     -3.523347   1.000000   1.000000
   45       -3.001411     -3.001411   1.000000   1.000000
   46       -2.979728     -2.979728   1.000000   1.000000
   47       -2.922556     -2.922556   1.000000   1.000000
   48       -2.898587     -2.898587   1.000000   1.000000
   49       -2.887328     -2.887328   1.000000   1.000000
   50       -2.634233     -2.634233   1.000000   1.000000
   51       -2.557016     -2.557016   1.000000   1.000000
   52       -2.547885     -2.547885   1.000000   1.000000
   53       -2.527007     -2.527007   1.000000   1.000000
   54       -2.518194     -2.518194   1.000000   1.000000
   55       -2.472892     -2.472892   1.000000   1.000000
   56       -2.427428     -2.427428   1.000000   1.000000
   57       -2.250048     -2.250048   1.000000   1.000000
   58       -2.242102     -2.242102   1.000000   1.000000
   59       -2.133677     -2.133677   1.000000   1.000000
   60       -1.852661     -1.852661   1.000000   1.000000
   61       -1.812462     -1.812462   1.000000   1.000000
   62       -1.767006     -1.767006   1.000000   1.000000
   63       -1.473070     -1.473070   1.000000   1.000000
   64       -1.376886     -1.376886   1.000000   1.000000
   65       -1.350248     -1.350248   1.000000   1.000000
   66       -1.215785     -1.215785   1.000000   1.000000
   67       -1.102792     -1.102792   1.000000   1.000000
   68       -1.089905     -1.089905   1.000000   1.000000
   69       -0.985812     -0.985812   1.000000   1.000000
   70       -0.965634     -0.965634   1.000000   1.000000
   71       -0.934862     -0.934862   1.000000   1.000000
   72       -0.277696     -0.277696   1.000000   1.000000
   73       -0.233041     -0.233041   1.000000   1.000000
   74       -0.163160     -0.163160   1.000000   1.000000
   75        0.016532      0.016532   1.000000   1.000000
   76        0.256736      0.256736   1.000000   1.000000
   77        0.329109      0.329109   1.000000   1.000000
   78        0.400933      0.400933   1.000000   1.000000
   79        0.617574      0.617574   1.000000   1.000000
   80        0.719917      0.719917   1.000000   1.000000
   81        0.726402      0.726402   1.000000   1.000000
   82        0.974077      0.974077   1.000000   1.000000
   83        1.030389      1.030389   1.000000   1.000000
   84        1.279832      1.279832   1.000000   1.000000
   85        1.379784      1.379784   1.000000   1.000000
   86        1.426403      1.426403   1.000000   1.000000
   87        1.643966      1.643966   1.000000   1.000000
   88        1.659671      1.659671   1.000000   1.000000
   89        1.680415      1.680415   1.000000   1.000000
   90        1.703029      1.703029   1.000000   1.000000
   91        1.745632      1.745632   1.000000   1.000000
   92        1.754481      1.754481   1.000000   1.000000
   93        1.802284      1.802284   1.000000   1.000000
   94        1.839085      1.839085   1.000000   1.000000
   95        1.938995      1.938995   1.000000   1.000000
   96        2.178047      2.178047   1.000000   1.000000
   97        2.189793      2.189793   1.000000   1.000000
   98        2.318248      2.318248   1.000000   1.000000
   99        2.376102      2.376102   1.000000   1.000000
  100        2.551085      2.551085   1.000000   1.000000
  101        2.903268      2.903268   0.999651   0.999651
  102        3.336716      3.336716   1.041028   1.041028
  103        3.516608      3.516608   0.394231   0.394231
  104        3.535551      3.535551   0.299222   0.299223
  105        3.606939      3.606939   0.033861   0.033861
  106        3.611744      3.611744   0.022731   0.022731
  107        3.789465      3.789465  -0.013562  -0.013562
  108        4.041862      4.041862   0.000950   0.000950
  109        4.062323      4.062323   0.000631   0.000631
  110        4.159524      4.159524   0.000060   0.000060
  111        4.419097      4.419097   0.000000   0.000000
  112        4.544039      4.544039   0.000000   0.000000
  113        5.513021      5.513021   0.000000   0.000000
  114        5.520400      5.520400   0.000000   0.000000
  115        5.589107      5.589107   0.000000   0.000000
  116        5.597040      5.597040   0.000000   0.000000
  117        5.618345      5.618345   0.000000   0.000000
  118        5.825212      5.825212   0.000000   0.000000
  119        6.522566      6.522566   0.000000   0.000000
  120        7.354085      7.354085   0.000000   0.000000
  121        7.407506      7.407506   0.000000   0.000000
  122        7.707880      7.707880   0.000000   0.000000
  123        8.170932      8.170932   0.000000   0.000000
  124        8.210396      8.210396   0.000000   0.000000
  125        8.330580      8.330580   0.000000   0.000000
  126        8.471442      8.471442   0.000000   0.000000
  127        8.653287      8.653287   0.000000   0.000000
  128        8.894819      8.894819   0.000000   0.000000
  129        9.131551      9.131551   0.000000   0.000000
  130        9.289049      9.289049   0.000000   0.000000
  131        9.474810      9.474810   0.000000   0.000000
  132        9.481815      9.481815   0.000000   0.000000
  133        9.649923      9.649923   0.000000   0.000000
  134        9.820469      9.820469   0.000000   0.000000
  135        9.926446      9.926446   0.000000   0.000000
  136        9.955474      9.955474   0.000000   0.000000
 
  0.5000000E+00  0.3742002E-15  0.1262379E-14  0.3125000E-01
    1      -31.130426    -31.130426   1.000000   1.000000
    2      -31.125132    -31.125132   1.000000   1.000000
    3      -31.119691    -31.119691   1.000000   1.000000
    4      -31.117144    -31.117144   1.000000   1.000000
    5      -16.700375    -16.700375   1.000000   1.000000
    6      -16.688016    -16.688016   1.000000   1.000000
    7      -16.666728    -16.666728   1.000000   1.000000
    8      -16.639153    -16.639153   1.000000   1.000000
    9      -16.587892    -16.587892   1.000000   1.000000
   10      -16.580972    -16.580972   1.000000   1.000000
   11      -16.201237    -16.201237   1.000000   1.000000
   12      -16.192144    -16.192144   1.000000   1.000000
   13      -16.181537    -16.181537   1.000000   1.000000
   14      -16.168080    -16.168080   1.000000   1.000000
   15      -15.888067    -15.888067   1.000000   1.000000
   16      -15.874625    -15.874625   1.000000   1.000000
   17      -15.868068    -15.868068   1.000000   1.000000
   18      -15.867679    -15.867679   1.000000   1.000000
   19      -15.468854    -15.468854   1.000000   1.000000
   20      -15.468604    -15.468604   1.000000   1.000000
   21      -13.373622    -13.373622   1.000000   1.000000
   22      -13.368560    -13.368560   1.000000   1.000000
   23      -13.361850    -13.361850   1.000000   1.000000
   24      -13.356351    -13.356351   1.000000   1.000000
   25      -13.189427    -13.189427   1.000000   1.000000
   26      -13.188460    -13.188460   1.000000   1.000000
   27      -13.020090    -13.020090   1.000000   1.000000
   28      -13.013076    -13.013076   1.000000   1.000000
   29      -12.943546    -12.943546   1.000000   1.000000
   30      -12.939909    -12.939909   1.000000   1.000000
   31      -12.770941    -12.770941   1.000000   1.000000
   32      -12.764192    -12.764192   1.000000   1.000000
   33       -4.619204     -4.619204   1.000000   1.000000
   34       -4.599070     -4.599070   1.000000   1.000000
   35       -4.340411     -4.340411   1.000000   1.000000
   36       -4.339980     -4.339980   1.000000   1.000000
   37       -4.266812     -4.266812   1.000000   1.000000
   38       -4.225792     -4.225792   1.000000   1.000000
   39       -4.196651     -4.196651   1.000000   1.000000
   40       -4.185089     -4.185089   1.000000   1.000000
   41       -4.184530     -4.184530   1.000000   1.000000
   42       -4.162737     -4.162737   1.000000   1.000000
   43       -4.000906     -4.000906   1.000000   1.000000
   44       -3.995201     -3.995201   1.000000   1.000000
   45       -3.717326     -3.717326   1.000000   1.000000
   46       -3.717036     -3.717036   1.000000   1.000000
   47       -3.684935     -3.684935   1.000000   1.000000
   48       -3.675642     -3.675642   1.000000   1.000000
   49       -3.254548     -3.254548   1.000000   1.000000
   50       -3.233865     -3.233865   1.000000   1.000000
   51       -3.125904     -3.125904   1.000000   1.000000
   52       -3.114411     -3.114411   1.000000   1.000000
   53       -2.742421     -2.742421   1.000000   1.000000
   54       -2.712273     -2.712273   1.000000   1.000000
   55       -2.543687     -2.543687   1.000000   1.000000
   56       -2.542865     -2.542865   1.000000   1.000000
   57       -2.254563     -2.254563   1.000000   1.000000
   58       -2.248366     -2.248366   1.000000   1.000000
   59       -2.182021     -2.182021   1.000000   1.000000
   60       -2.160176     -2.160176   1.000000   1.000000
   61       -2.108769     -2.108769   1.000000   1.000000
   62       -2.096459     -2.096459   1.000000   1.000000
   63       -1.911745     -1.911745   1.000000   1.000000
   64       -1.898577     -1.898577   1.000000   1.000000
   65       -1.745377     -1.745377   1.000000   1.000000
   66       -1.722088     -1.722088   1.000000   1.000000
   67       -1.594781     -1.594781   1.000000   1.000000
   68       -1.588925     -1.588925   1.000000   1.000000
   69       -1.463062     -1.463062   1.000000   1.000000
   70       -1.460782     -1.460782   1.000000   1.000000
   71       -1.214417     -1.214417   1.000000   1.000000
   72       -1.213540     -1.213540   1.000000   1.000000
   73        0.055191      0.055191   1.000000   1.000000
   74        0.061690      0.061690   1.000000   1.000000
   75        0.206263      0.206263   1.000000   1.000000
   76        0.228884      0.228884   1.000000   1.000000
   77        0.240492      0.240492   1.000000   1.000000
   78        0.261951      0.261951   1.000000   1.000000
   79        0.466159      0.466159   1.000000   1.000000
   80        0.469715      0.469715   1.000000   1.000000
   81        1.035632      1.035632   1.000000   1.000000
   82        1.042015      1.042015   1.000000   1.000000
   83        1.056649      1.056649   1.000000   1.000000
   84        1.056928      1.056928   1.000000   1.000000
   85        1.514676      1.514676   1.000000   1.000000
   86        1.519990      1.519990   1.000000   1.000000
   87        2.123508      2.123508   1.000000   1.000000
   88        2.127652      2.127652   1.000000   1.000000
   89        2.367991      2.367991   1.000000   1.000000
   90        2.370796      2.370796   1.000000   1.000000
   91        2.480078      2.480078   1.000000   1.000000
   92        2.487839      2.487839   1.000000   1.000000
   93        2.671722      2.671722   1.000000   1.000000
   94        2.678740      2.678740   1.000000   1.000000
   95        2.726513      2.726513   0.999998   0.999998
   96        2.733871      2.733871   0.999997   0.999997
   97        2.781506      2.781506   0.999987   0.999987
   98        2.783704      2.783704   0.999986   0.999986
   99        2.827734      2.827734   0.999948   0.999948
  100        2.840148      2.840148   0.999927   0.999927
  101        3.004252      3.004252   0.997671   0.997671
  102        3.005466      3.005466   0.997630   0.997630
  103        3.055994      3.055994   0.995796   0.995796
  104        3.062881      3.062881   0.995577   0.995577
  105        3.064587      3.064587   0.995527   0.995527
  106        3.076513      3.076513   0.995233   0.995233
  107        3.283797      3.283797   1.048397   1.048397
  108        3.306115      3.306115   1.051609   1.051609
  109        3.509187      3.509187   0.432860   0.432860
  110        3.509517      3.509517   0.431129   0.431129
  111        3.531796      3.531796   0.317524   0.317524
  112        3.532257      3.532257   0.315260   0.315260
  113        5.981735      5.981735   0.000000   0.000000
  114        5.982449      5.982449   0.000000   0.000000
  115        7.008389      7.008389   0.000000   0.000000
  116        7.013799      7.013799   0.000000   0.000000
  117        7.414620      7.414620   0.000000   0.000000
  118        7.418980      7.418980   0.000000   0.000000
  119        7.506249      7.506249   0.000000   0.000000
  120        7.516509      7.516509   0.000000   0.000000
  121        7.649960      7.649960   0.000000   0.000000
  122        7.654567      7.654567   0.000000   0.000000
  123        7.741915      7.741915   0.000000   0.000000
  124        7.748121      7.748121   0.000000   0.000000
  125        8.095687      8.095687   0.000000   0.000000
  126        8.096921      8.096921   0.000000   0.000000
  127        8.347438      8.347438   0.000000   0.000000
  128        8.354158      8.354158   0.000000   0.000000
  129        8.714313      8.714313   0.000000   0.000000
  130        8.720308      8.720308   0.000000   0.000000
  131        8.892164      8.892164   0.000000   0.000000
  132        8.895619      8.895619   0.000000   0.000000
  133        9.088561      9.088561   0.000000   0.000000
  134        9.094673      9.094673   0.000000   0.000000
  135        9.610977      9.610977   0.000000   0.000000
  136        9.612957      9.612957   0.000000   0.000000
 
  0.3742002E-15  0.2500000E+00  0.1262379E-14  0.6250000E-01
    1      -31.151884    -31.151884   1.000000   1.000000
    2      -31.142414    -31.142414   1.000000   1.000000
    3      -31.103787    -31.103787   1.000000   1.000000
    4      -31.095769    -31.095769   1.000000   1.000000
    5      -17.218033    -17.218033   1.000000   1.000000
    6      -17.162242    -17.162242   1.000000   1.000000
    7      -16.902295    -16.902295   1.000000   1.000000
    8      -16.413234    -16.413234   1.000000   1.000000
    9      -16.326118    -16.326118   1.000000   1.000000
   10      -16.318469    -16.318469   1.000000   1.000000
   11      -16.257186    -16.257186   1.000000   1.000000
   12      -16.215748    -16.215748   1.000000   1.000000
   13      -16.077314    -16.077314   1.000000   1.000000
   14      -16.025581    -16.025581   1.000000   1.000000
   15      -15.939862    -15.939862   1.000000   1.000000
   16      -15.895686    -15.895686   1.000000   1.000000
   17      -15.801047    -15.801047   1.000000   1.000000
   18      -15.691860    -15.691860   1.000000   1.000000
   19      -15.341527    -15.341527   1.000000   1.000000
   20      -15.083425    -15.083425   1.000000   1.000000
   21      -13.350011    -13.350011   1.000000   1.000000
   22      -13.315926    -13.315926   1.000000   1.000000
   23      -13.278112    -13.278112   1.000000   1.000000
   24      -13.269501    -13.269501   1.000000   1.000000
   25      -13.193447    -13.193447   1.000000   1.000000
   26      -13.112563    -13.112563   1.000000   1.000000
   27      -13.099678    -13.099678   1.000000   1.000000
   28      -13.029253    -13.029253   1.000000   1.000000
   29      -12.984308    -12.984308   1.000000   1.000000
   30      -12.956079    -12.956079   1.000000   1.000000
   31      -12.865784    -12.865784   1.000000   1.000000
   32      -12.736408    -12.736408   1.000000   1.000000
   33       -5.669900     -5.669900   1.000000   1.000000
   34       -5.650117     -5.650117   1.000000   1.000000
   35       -5.604080     -5.604080   1.000000   1.000000
   36       -5.590923     -5.590923   1.000000   1.000000
   37       -5.509112     -5.509112   1.000000   1.000000
   38       -5.218662     -5.218662   1.000000   1.000000
   39       -4.929576     -4.929576   1.000000   1.000000
   40       -4.725266     -4.725266   1.000000   1.000000
   41       -4.119058     -4.119058   1.000000   1.000000
   42       -4.038506     -4.038506   1.000000   1.000000
   43       -3.579983     -3.579983   1.000000   1.000000
   44       -3.531488     -3.531488   1.000000   1.000000
   45       -2.998610     -2.998610   1.000000   1.000000
   46       -2.985324     -2.985324   1.000000   1.000000
   47       -2.967511     -2.967511   1.000000   1.000000
   48       -2.950091     -2.950091   1.000000   1.000000
   49       -2.888969     -2.888969   1.000000   1.000000
   50       -2.674916     -2.674916   1.000000   1.000000
   51       -2.544225     -2.544225   1.000000   1.000000
   52       -2.472197     -2.472197   1.000000   1.000000
   53       -2.459612     -2.459612   1.000000   1.000000
   54       -2.439006     -2.439006   1.000000   1.000000
   55       -2.427224     -2.427224   1.000000   1.000000
   56       -2.426132     -2.426132   1.000000   1.000000
   57       -2.413663     -2.413663   1.000000   1.000000
   58       -2.198946     -2.198946   1.000000   1.000000
   59       -2.120574     -2.120574   1.000000   1.000000
   60       -1.904789     -1.904789   1.000000   1.000000
   61       -1.836853     -1.836853   1.000000   1.000000
   62       -1.671250     -1.671250   1.000000   1.000000
   63       -1.561890     -1.561890   1.000000   1.000000
   64       -1.478038     -1.478038   1.000000   1.000000
   65       -1.385863     -1.385863   1.000000   1.000000
   66       -1.283746     -1.283746   1.000000   1.000000
   67       -1.212475     -1.212475   1.000000   1.000000
   68       -1.074907     -1.074907   1.000000   1.000000
   69       -1.023378     -1.023378   1.000000   1.000000
   70       -0.988743     -0.988743   1.000000   1.000000
   71       -0.926773     -0.926773   1.000000   1.000000
   72       -0.354002     -0.354002   1.000000   1.000000
   73       -0.211705     -0.211705   1.000000   1.000000
   74        0.020590      0.020590   1.000000   1.000000
   75        0.039287      0.039287   1.000000   1.000000
   76        0.049485      0.049485   1.000000   1.000000
   77        0.282945      0.282945   1.000000   1.000000
   78        0.439596      0.439596   1.000000   1.000000
   79        0.601734      0.601734   1.000000   1.000000
   80        0.627266      0.627266   1.000000   1.000000
   81        0.959535      0.959535   1.000000   1.000000
   82        0.993044      0.993044   1.000000   1.000000
   83        1.038605      1.038605   1.000000   1.000000
   84        1.318154      1.318154   1.000000   1.000000
   85        1.507978      1.507978   1.000000   1.000000
   86        1.593476      1.593476   1.000000   1.000000
   87        1.614072      1.614072   1.000000   1.000000
   88        1.646305      1.646305   1.000000   1.000000
   89        1.679973      1.679973   1.000000   1.000000
   90        1.695516      1.695516   1.000000   1.000000
   91        1.738082      1.738082   1.000000   1.000000
   92        1.778288      1.778288   1.000000   1.000000
   93        1.882716      1.882716   1.000000   1.000000
   94        1.943941      1.943941   1.000000   1.000000
   95        1.976195      1.976195   1.000000   1.000000
   96        2.042085      2.042085   1.000000   1.000000
   97        2.183935      2.183935   1.000000   1.000000
   98        2.296451      2.296451   1.000000   1.000000
   99        2.380161      2.380161   1.000000   1.000000
  100        2.561787      2.561787   1.000000   1.000000
  101        2.986082      2.986082   0.998236   0.998236