       N       E                     dE             d eps       ncg     rms          rms(c)
DAV:   1     0.174083431284E+04    0.17408E+04   -0.85828E+04 10936   0.117E+03
DAV:   2     0.296751415803E+02   -0.17112E+04   -0.16077E+04 11200   0.363E+02
DAV:   3    -0.209021231279E+03   -0.23870E+03   -0.22851E+03 15400   0.131E+02
DAV:   4    -0.221180842410E+03   -0.12160E+02   -0.12011E+02 15032   0.299E+01
DAV:   5    -0.221949075163E+03   -0.76823E+00   -0.76713E+00 18840   0.568E+00    0.903E+01
RMM:   6    -0.236091604893E+03   -0.14143E+02   -0.35515E+02 11148   0.426E+01    0.163E+02
RMM:   7    -0.205781353579E+03    0.30310E+02   -0.17413E+01 11704   0.124E+01    0.899E+01
RMM:   8    -0.206707763083E+03   -0.92641E+00   -0.57537E+01 11065   0.152E+01    0.656E+01
RMM:   9    -0.179638847917E+03    0.27069E+02   -0.11170E+01 10909   0.880E+00    0.262E+01
RMM:  10    -0.178366642628E+03    0.12722E+01   -0.54730E+00 10983   0.598E+00    0.189E+01
RMM:  11    -0.177942381549E+03    0.42426E+00   -0.20964E+00 11501   0.351E+00    0.218E+01
RMM:  12    -0.178290491909E+03   -0.34811E+00   -0.14931E+00 11142   0.292E+00    0.159E+01
RMM:  13    -0.179050314981E+03   -0.75982E+00   -0.17130E+00 10913   0.284E+00    0.112E+01
RMM:  14    -0.179072181047E+03   -0.21866E-01   -0.37481E-01 11270   0.122E+00    0.956E+00
RMM:  15    -0.179011328068E+03    0.60853E-01   -0.11360E-01 11382   0.637E-01    0.868E+00
RMM:  16    -0.178939734030E+03    0.71594E-01   -0.58721E-02 11482   0.496E-01    0.774E+00
RMM:  17    -0.178896871078E+03    0.42863E-01   -0.38372E-02 11074   0.424E-01    0.654E+00
RMM:  18    -0.178885567686E+03    0.11303E-01   -0.13735E-02 11619   0.216E-01    0.609E+00
RMM:  19    -0.178890744771E+03   -0.51771E-02   -0.24557E-03 11762   0.107E-01    0.622E+00
RMM:  20    -0.178891577515E+03   -0.83274E-03   -0.10149E-03 10641   0.653E-02    0.630E+00
RMM:  21    -0.178888084236E+03    0.34933E-02   -0.19022E-02 10852   0.309E-01    0.611E+00
RMM:  22    -0.178840975088E+03    0.47109E-01   -0.10725E-02 10897   0.250E-01    0.513E+00
RMM:  23    -0.178809250121E+03    0.31725E-01   -0.77759E-03 10904   0.184E-01    0.460E+00
RMM:  24    -0.178799464872E+03    0.97852E-02   -0.39713E-03 10931   0.128E-01    0.390E+00
RMM:  25    -0.178774981396E+03    0.24483E-01   -0.62949E-03 10975   0.164E-01    0.261E+00
RMM:  26    -0.178770101321E+03    0.48801E-02   -0.48209E-03 11156   0.155E-01    0.178E+00
RMM:  27    -0.178766298305E+03    0.38030E-02   -0.31603E-03 10965   0.125E-01    0.120E+00
RMM:  28    -0.178765333978E+03    0.96433E-03   -0.72440E-04 11480   0.645E-02    0.111E+00
RMM:  29    -0.178765297173E+03    0.36805E-04   -0.15979E-04 10554   0.281E-02    0.104E+00
RMM:  30    -0.178765020281E+03    0.27689E-03   -0.16317E-04  9819   0.292E-02    0.976E-01
RMM:  31    -0.178762943615E+03    0.20767E-02   -0.15632E-03 10722   0.898E-02    0.508E-01
RMM:  32    -0.178763058984E+03   -0.11537E-03   -0.12906E-03 10849   0.776E-02    0.178E-01
RMM:  33    -0.178763255831E+03   -0.19685E-03   -0.21249E-04 10160   0.376E-02    0.175E-01
RMM:  34    -0.178763472702E+03   -0.21687E-03   -0.20228E-04  9959   0.337E-02    0.225E-01
RMM:  35    -0.178763873771E+03   -0.40107E-03   -0.41941E-04 10276   0.508E-02    0.398E-01
RMM:  36    -0.178764056424E+03   -0.18265E-03   -0.13014E-04  9537   0.287E-02    0.408E-01
RMM:  37    -0.178764129369E+03   -0.72945E-04   -0.49976E-05  8268   0.187E-02    0.362E-01
RMM:  38    -0.178764257218E+03   -0.12785E-03   -0.60561E-05  8060   0.178E-02    0.351E-01
RMM:  39    -0.178764428901E+03   -0.17168E-03   -0.18133E-04  8901   0.291E-02    0.317E-01
RMM:  40    -0.178764693150E+03   -0.26425E-03   -0.11705E-03 10695   0.748E-02    0.193E-01
RMM:  41    -0.178764825098E+03   -0.13195E-03   -0.24403E-04 10226   0.413E-02    0.105E-01
RMM:  42    -0.178764885418E+03   -0.60320E-04   -0.10853E-04  9994   0.248E-02    0.740E-02
RMM:  43    -0.178764885972E+03   -0.55403E-06   -0.32808E-05  7840   0.159E-02
   1 F= -.17876489E+03 E0= -.17876307E+03  d E =-.178765E+03  mag=     2.1182
       N       E                     dE             d eps       ncg     rms          rms(c)
DAV:   1    -0.285603674947E+03   -0.10684E+03   -0.48140E+03 12304   0.267E+02    0.248E+02
RMM:   2    -0.186894323969E+03    0.98709E+02   -0.31596E+02 10885   0.537E+01    0.122E+02
RMM:   3    -0.223373510587E+03   -0.36479E+02   -0.10244E+02 11175   0.328E+01    0.141E+02
RMM:   4    -0.170139418617E+03    0.53234E+02   -0.21404E+01 11315   0.127E+01    0.352E+01
RMM:   5    -0.170794050050E+03   -0.65463E+00   -0.14867E+01 11133   0.103E+01    0.499E+01
RMM:   6    -0.163681394266E+03    0.71127E+01   -0.16485E+00 12529   0.362E+00    0.234E+01
RMM:   7    -0.162458111845E+03    0.12233E+01   -0.14676E+00 11988   0.332E+00    0.110E+01
RMM:   8    -0.163104158366E+03   -0.64605E+00   -0.10448E+00 14069   0.242E+00    0.187E+01
RMM:   9    -0.162705454368E+03    0.39870E+00   -0.51404E-01 14773   0.172E+00    0.118E+01
RMM:  10    -0.162345818737E+03    0.35964E+00   -0.41859E-01 14381   0.149E+00    0.355E+00
RMM:  11    -0.162325390353E+03    0.20428E-01   -0.10345E-01 16097   0.735E-01    0.260E+00
RMM:  12    -0.162327824310E+03   -0.24340E-02   -0.44430E-02 15805   0.466E-01    0.229E+00
RMM:  13    -0.162326860725E+03    0.96358E-03   -0.21122E-02 15247   0.354E-01    0.135E+00
RMM:  14    -0.162325043708E+03    0.18170E-02   -0.88864E-03 15685   0.214E-01    0.108E+00
RMM:  15    -0.162324579622E+03    0.46409E-03   -0.38125E-03 16130   0.131E-01    0.884E-01
RMM:  16    -0.162324451411E+03    0.12821E-03   -0.14365E-03 16365   0.759E-02    0.606E-01
RMM:  17    -0.162324432503E+03    0.18908E-04   -0.63879E-04 15704   0.596E-02    0.377E-01
RMM:  18    -0.162324420428E+03    0.12076E-04   -0.24745E-04 15141   0.323E-02    0.203E-01
RMM:  19    -0.162324431845E+03   -0.11417E-04   -0.96646E-05 12678   0.202E-02    0.151E-01
RMM:  20    -0.162324448331E+03   -0.16487E-04   -0.51694E-05 10881   0.165E-02    0.106E-01
RMM:  21    -0.162324466280E+03   -0.17949E-04   -0.39750E-05  9844   0.166E-02    0.366E-02
RMM:  22    -0.162324474390E+03   -0.81098E-05   -0.26111E-05  7930   0.136E-02
   2 F= -.16232447E+03 E0= -.16232349E+03  d E =0.164404E+02  mag=     0.0101
       N       E                     dE             d eps       ncg     rms          rms(c)
DAV:   1    -0.233020204702E+03   -0.70696E+02   -0.19528E+03 11896   0.164E+02    0.995E+01
RMM:   2    -0.200045167996E+03    0.32975E+02   -0.10293E+02 11091   0.303E+01    0.804E+01
RMM:   3    -0.197521401023E+03    0.25238E+01   -0.25159E+01 11791   0.136E+01    0.635E+01
RMM:   4    -0.207618100220E+03   -0.10097E+02   -0.25712E+01 11008   0.137E+01    0.573E+01
RMM:   5    -0.213571294358E+03   -0.59532E+01   -0.11987E+01 11244   0.909E+00    0.442E+01
RMM:   6    -0.188595889011E+03    0.24975E+02   -0.95401E+00 11039   0.861E+00    0.351E+01
RMM:   7    -0.186253397312E+03    0.23425E+01   -0.10907E+00 12760   0.220E+00    0.292E+01
RMM:   8    -0.185151196540E+03    0.11022E+01   -0.13618E+00 12566   0.261E+00    0.244E+01
RMM:   9    -0.184838020960E+03    0.31318E+00   -0.55358E-01 12133   0.188E+00    0.167E+01
RMM:  10    -0.184918626658E+03   -0.80606E-01   -0.52983E-01 11801   0.182E+00    0.141E+01
RMM:  11    -0.184440913252E+03    0.47771E+00   -0.29411E-01 11736   0.143E+00    0.790E+00
RMM:  12    -0.184346112170E+03    0.94801E-01   -0.56705E-02 14285   0.556E-01    0.673E+00
RMM:  13    -0.184321701749E+03    0.24410E-01   -0.25136E-02 13456   0.379E-01    0.604E+00
RMM:  14    -0.184301302979E+03    0.20399E-01   -0.40949E-02 11623   0.518E-01    0.478E+00
RMM:  15    -0.184296177419E+03    0.51256E-02   -0.22947E-02 11346   0.396E-01    0.419E+00
RMM:  16    -0.184273653373E+03    0.22524E-01   -0.87998E-03 11684   0.247E-01    0.316E+00
RMM:  17    -0.184263472940E+03    0.10180E-01   -0.61191E-03 11407   0.194E-01    0.262E+00
RMM:  18    -0.184246289292E+03    0.17184E-01   -0.54987E-03 11384   0.179E-01    0.146E+00
RMM:  19    -0.184242855906E+03    0.34334E-02   -0.12908E-03 12053   0.931E-02    0.115E+00
RMM:  20    -0.184240176249E+03    0.26797E-02   -0.96613E-04 11464   0.794E-02    0.754E-01
RMM:  21    -0.184238788115E+03    0.13881E-02   -0.90718E-04 11255   0.733E-02    0.499E-01
RMM:  22    -0.184238195935E+03    0.59218E-03   -0.30757E-04 10948   0.470E-02    0.308E-01
RMM:  23    -0.184238028560E+03    0.16738E-03   -0.10907E-04 10592   0.250E-02    0.219E-01
RMM:  24    -0.184237935390E+03    0.93170E-04   -0.56652E-05  9298   0.217E-02    0.186E-01
RMM:  25    -0.184237870978E+03    0.64412E-04   -0.12103E-04  9713   0.282E-02    0.178E-01
RMM:  26    -0.184237821188E+03    0.49790E-04   -0.44110E-05  8485   0.189E-02    0.118E-01
RMM:  27    -0.184237786903E+03    0.34285E-04   -0.33752E-05  7829   0.163E-02    0.727E-02
RMM:  28    -0.184237767612E+03    0.19292E-04   -0.92696E-06  6326   0.103E-02    0.392E-02
RMM:  29    -0.184237766641E+03    0.97063E-06   -0.39949E-06  6195   0.658E-03
   3 F= -.18423777E+03 E0= -.18423868E+03  d E =-.547288E+01  mag=    -0.0024
       N       E                     dE             d eps       ncg     rms          rms(c)
DAV:   1    -0.184432058220E+03   -0.19429E+00   -0.48372E+00 12032   0.827E+00    0.455E+00
RMM:   2    -0.184334473127E+03    0.97585E-01   -0.27005E-01 10956   0.161E+00    0.303E+00
RMM:   3    -0.184564758953E+03   -0.23029E+00   -0.14755E-01 11090   0.996E-01    0.736E+00
RMM:   4    -0.184319237223E+03    0.24552E+00   -0.80141E-02 10928   0.855E-01    0.128E+00
RMM:   5    -0.184341321451E+03   -0.22084E-01   -0.21273E-02 11135   0.408E-01    0.298E+00
RMM:   6    -0.184308990252E+03    0.32331E-01   -0.11781E-02 11256   0.291E-01    0.103E+00
RMM:   7    -0.184310045101E+03   -0.10548E-02   -0.33299E-03 11927   0.164E-01    0.147E+00
RMM:   8    -0.184303330988E+03    0.67141E-02   -0.12512E-03 11713   0.993E-02    0.311E-01
RMM:   9    -0.184302614985E+03    0.71600E-03   -0.38400E-04 12055   0.551E-02    0.227E-01
RMM:  10    -0.184302700172E+03   -0.85187E-04   -0.30152E-04 12329   0.425E-02    0.236E-01
RMM:  11    -0.184302778258E+03   -0.78085E-04   -0.25533E-04 11452   0.408E-02    0.175E-01
RMM:  12    -0.184302832464E+03   -0.54206E-04   -0.46974E-05  9274   0.180E-02    0.185E-01
RMM:  13    -0.184302647660E+03    0.18480E-03   -0.52861E-04 10736   0.576E-02    0.180E-01
RMM:  14    -0.184302516744E+03    0.13092E-03   -0.33437E-04  9928   0.441E-02    0.135E-01
RMM:  15    -0.184302448278E+03    0.68466E-04   -0.99270E-05  9714   0.258E-02    0.646E-02
RMM:  16    -0.184302432665E+03    0.15613E-04   -0.31707E-05  7562   0.148E-02    0.389E-02
RMM:  17    -0.184302434287E+03   -0.16221E-05   -0.14559E-05  6463   0.116E-02
   4 F= -.18430243E+03 E0= -.18430393E+03  d E =-.553755E+01  mag=     0.0068
       N       E                     dE             d eps       ncg     rms          rms(c)
DAV:   1    -0.184302861546E+03   -0.42888E-03   -0.96984E-03 12040   0.369E-01    0.206E-01
RMM:   2    -0.184302688300E+03    0.17325E-03   -0.57205E-04 10989   0.738E-02    0.157E-01
RMM:   3    -0.184303127345E+03   -0.43904E-03   -0.31394E-04 10962   0.494E-02    0.356E-01
RMM:   4    -0.184302912789E+03    0.21456E-03   -0.17823E-04 10647   0.390E-02    0.271E-01
RMM:   5    -0.184302672748E+03    0.24004E-03   -0.93805E-05  9112   0.276E-02    0.964E-02
RMM:   6    -0.184302681675E+03   -0.89270E-05   -0.52631E-05  8510   0.199E-02
   5 F= -.18430268E+03 E0= -.18430417E+03  d E =-.553780E+01  mag=     0.0286
       N       E                     dE             d eps       ncg     rms          rms(c)
DAV:   1    -0.184676353172E+03   -0.37368E+00   -0.12897E+02 10880   0.316E+01    0.481E+00
RMM:   2    -0.185256451778E+03   -0.58010E+00   -0.37670E+00 10952   0.617E+00    0.103E+01
RMM:   3    -0.184944405337E+03    0.31205E+00   -0.31017E-01 11709   0.173E+00    0.375E+00
RMM:   4    -0.184863140394E+03    0.81265E-01   -0.12337E-01 11527   0.913E-01    0.167E+00
RMM:   5    -0.184884827898E+03   -0.21688E-01   -0.58652E-02 11297   0.648E-01    0.271E+00
RMM:   6    -0.184859001291E+03    0.25827E-01   -0.18392E-02 11711   0.358E-01    0.182E+00
RMM:   7    -0.184860744741E+03   -0.17435E-02   -0.11389E-02 11924   0.270E-01    0.177E+00
RMM:   8    -0.184848936349E+03    0.11808E-01   -0.45108E-03 11789   0.188E-01    0.651E-01
RMM:   9    -0.184846558524E+03    0.23778E-02   -0.23041E-03 12008   0.124E-01    0.382E-01
RMM:  10    -0.184845990753E+03    0.56777E-03   -0.66443E-04 12704   0.639E-02    0.141E-01
RMM:  11    -0.184846048026E+03   -0.57274E-04   -0.30798E-04 12126   0.432E-02    0.134E-01
RMM:  12    -0.184846089927E+03   -0.41900E-04   -0.10452E-04 11065   0.253E-02    0.129E-01
RMM:  13    -0.184846103562E+03   -0.13636E-04   -0.19815E-05  7280   0.124E-02    0.126E-01
RMM:  14    -0.184846080240E+03    0.23322E-04   -0.11178E-05  6573   0.987E-03    0.127E-01
RMM:  15    -0.184846045047E+03    0.35193E-04   -0.96131E-06  6383   0.960E-03    0.119E-01
RMM:  16    -0.184845787232E+03    0.25782E-03   -0.38128E-04  9952   0.502E-02    0.107E-01
RMM:  17    -0.184845758011E+03    0.29221E-04   -0.11404E-04  9204   0.275E-02    0.855E-02
RMM:  18    -0.184845718373E+03    0.39638E-04   -0.30583E-04  9714   0.424E-02    0.907E-02
RMM:  19    -0.184845743700E+03   -0.25327E-04   -0.28554E-05  7502   0.225E-02    0.470E-02
RMM:  20    -0.184845741437E+03    0.22629E-05   -0.83100E-06  6195   0.989E-03
   6 F= -.18484574E+03 E0= -.18485090E+03  d E =-.543060E+00  mag=    -0.0050
       N       E                     dE             d eps       ncg     rms          rms(c)
DAV:   1    -0.184863389127E+03   -0.17645E-01   -0.39777E+00 10944   0.554E+00    0.847E-01
RMM:   2    -0.184877485789E+03   -0.14097E-01   -0.11300E-01 10957   0.107E+00    0.151E+00
RMM:   3    -0.184871779958E+03    0.57058E-02   -0.93058E-03 11609   0.310E-01    0.754E-01
RMM:   4    -0.184869322367E+03    0.24576E-02   -0.34256E-03 11431   0.158E-01    0.475E-01
RMM:   5    -0.184871027658E+03   -0.17053E-02   -0.15213E-03 11265   0.107E-01    0.751E-01
RMM:   6    -0.184868944859E+03    0.20828E-02   -0.10392E-03 11351   0.835E-02    0.382E-01
RMM:   7    -0.184868805555E+03    0.13930E-03   -0.36771E-04 11343   0.529E-02    0.312E-01
RMM:   8    -0.184868381941E+03    0.42361E-03   -0.18527E-04 10865   0.373E-02    0.868E-02
RMM:   9    -0.184868349776E+03    0.32165E-04   -0.46545E-05  8329   0.190E-02    0.660E-02
RMM:  10    -0.184868338336E+03    0.11440E-04   -0.20700E-05  6970   0.138E-02    0.354E-02
RMM:  11    -0.184868345223E+03   -0.68867E-05   -0.11088E-05  6285   0.110E-02
   7 F= -.18486835E+03 E0= -.18487375E+03  d E =-.565664E+00  mag=    -0.0117
       N       E                     dE             d eps       ncg     rms          rms(c)
DAV:   1    -0.184969188702E+03   -0.10085E+00   -0.15149E+02 10880   0.348E+01    0.510E+00
RMM:   2    -0.185499175883E+03   -0.52999E+00   -0.39703E+00 10880   0.592E+00    0.780E+00
RMM:   3    -0.185356767981E+03    0.14241E+00   -0.35157E-01 11236   0.199E+00    0.618E+00
RMM:   4    -0.185222649942E+03    0.13412E+00   -0.10700E-01 11045   0.928E-01    0.343E+00
RMM:   5    -0.185196877485E+03    0.25772E-01   -0.29956E-02 11938   0.480E-01    0.232E+00
RMM:   6    -0.185204949381E+03   -0.80719E-02   -0.29174E-02 11504   0.426E-01    0.301E+00
RMM:   7    -0.185194092437E+03    0.10857E-01   -0.13669E-02 11768   0.304E-01    0.222E+00
RMM:   8    -0.185175356114E+03    0.18736E-01   -0.74598E-03 11761   0.227E-01    0.626E-01
RMM:   9    -0.185173985799E+03    0.13703E-02   -0.25614E-03 12212   0.132E-01    0.551E-01
RMM:  10    -0.185173032758E+03    0.95304E-03   -0.81776E-04 13115   0.745E-02    0.274E-01
RMM:  11    -0.185173043466E+03   -0.10708E-04   -0.39567E-04 12669   0.490E-02    0.258E-01
RMM:  12    -0.185173048927E+03   -0.54611E-05   -0.23254E-04 11941   0.380E-02    0.191E-01
RMM:  13    -0.185173102044E+03   -0.53117E-04   -0.82243E-05 11130   0.220E-02    0.184E-01
RMM:  14    -0.185173013080E+03    0.88964E-04   -0.46544E-05  9538   0.188E-02    0.192E-01
RMM:  15    -0.185172816385E+03    0.19669E-03   -0.23629E-04  9809   0.381E-02    0.199E-01
RMM:  16    -0.185172350716E+03    0.46567E-03   -0.12175E-03 10697   0.846E-02    0.147E-01
RMM:  17    -0.185172401341E+03   -0.50624E-04   -0.26139E-04  9953   0.439E-02    0.968E-02
RMM:  18    -0.185172423493E+03   -0.22153E-04   -0.10028E-04  9494   0.257E-02    0.745E-02
RMM:  19    -0.185172411132E+03    0.12361E-04   -0.31751E-05  7995   0.186E-02    0.489E-02
RMM:  20    -0.185172408232E+03    0.29007E-05   -0.10778E-05  6179   0.107E-02
   8 F= -.18517241E+03 E0= -.18517523E+03  d E =-.304063E+00  mag=     0.0121
       N       E                     dE             d eps       ncg     rms          rms(c)
DAV:   1    -0.185167308189E+03    0.51029E-02   -0.25908E+01 10880   0.144E+01    0.203E+00
RMM:   2    -0.185243127041E+03   -0.75819E-01   -0.63682E-01 10882   0.242E+00    0.289E+00
RMM:   3    -0.185227759584E+03    0.15367E-01   -0.54310E-02 11300   0.781E-01    0.249E+00
RMM:   4    -0.185209746387E+03    0.18013E-01   -0.15813E-02 11154   0.358E-01    0.169E+00
RMM:   5    -0.185201301000E+03    0.84454E-02   -0.57288E-03 11786   0.208E-01    0.845E-01
RMM:   6    -0.185204479407E+03   -0.31784E-02   -0.64770E-03 11550   0.188E-01    0.136E+00
RMM:   7    -0.185200046593E+03    0.44328E-02   -0.20688E-03 11815   0.117E-01    0.678E-01
RMM:   8    -0.185198221968E+03    0.18246E-02   -0.13840E-03 11784   0.885E-02    0.259E-01
RMM:   9    -0.185197951363E+03    0.27061E-03   -0.33889E-04 10786   0.472E-02    0.175E-01
RMM:  10    -0.185197881911E+03    0.69452E-04   -0.90348E-05 10259   0.258E-02    0.106E-01
RMM:  11    -0.185197892986E+03   -0.11075E-04   -0.46182E-05  8616   0.175E-02    0.104E-01
RMM:  12    -0.185197911162E+03   -0.18177E-04   -0.37768E-05  8363   0.169E-02    0.862E-02
RMM:  13    -0.185197913898E+03   -0.27354E-05   -0.57935E-06  6320   0.879E-03
   9 F= -.18519791E+03 E0= -.18520033E+03  d E =-.329569E+00  mag=     0.0568
       N       E                     dE             d eps       ncg     rms          rms(c)
DAV:   1    -0.185276997724E+03   -0.79087E-01   -0.16702E+01 10880   0.114E+01    0.134E+00
RMM:   2    -0.185300185677E+03   -0.23188E-01   -0.41556E-01 10882   0.191E+00    0.789E-01
RMM:   3    -0.185315838374E+03   -0.15653E-01   -0.26687E-02 11427   0.555E-01    0.216E+00
RMM:   4    -0.185298687167E+03    0.17151E-01   -0.49881E-03 11963   0.199E-01    0.822E-01
RMM:   5    -0.185297723751E+03    0.96342E-03   -0.15989E-03 12290   0.108E-01    0.806E-01
RMM:   6    -0.185299302372E+03   -0.15786E-02   -0.30016E-03 11243   0.135E-01    0.873E-01
RMM:   7    -0.185297022072E+03    0.22803E-02   -0.15818E-03 11378   0.104E-01    0.503E-01
RMM:   8    -0.185297212070E+03   -0.19000E-03   -0.13303E-03 11626   0.903E-02    0.480E-01
RMM:   9    -0.185296487916E+03    0.72415E-03   -0.53095E-04 11258   0.586E-02    0.214E-01
RMM:  10    -0.185296606553E+03   -0.11864E-03   -0.15002E-04 11035   0.301E-02    0.215E-01
RMM:  11    -0.185296422592E+03    0.18396E-03   -0.10562E-04 10191   0.284E-02    0.219E-01
RMM:  12    -0.185296045721E+03    0.37687E-03   -0.31624E-04 10244   0.462E-02    0.213E-01
RMM:  13    -0.185295703766E+03    0.34195E-03   -0.40019E-04 10238   0.515E-02    0.170E-01
RMM:  14    -0.185295468754E+03    0.23501E-03   -0.88494E-04 10679   0.740E-02    0.138E-01
RMM:  15    -0.185295554900E+03   -0.86146E-04   -0.24986E-04  9986   0.440E-02    0.888E-02
RMM:  16    -0.185295549159E+03    0.57404E-05   -0.57059E-05  8746   0.215E-02
  10 F= -.18529555E+03 E0= -.18529821E+03  d E =-.976353E-01  mag=    -0.0185
       N       E                     dE             d eps       ncg     rms          rms(c)
DAV:   1    -0.185230671875E+03    0.64883E-01   -0.15004E+02 10880   0.342E+01    0.437E+00
RMM:   2    -0.185465235800E+03   -0.23456E+00   -0.42257E+00 10883   0.597E+00    0.241E+00
RMM:   3    -0.185554373709E+03   -0.89138E-01   -0.23095E-01 11422   0.164E+00    0.463E+00
RMM:   4    -0.185461322312E+03    0.93051E-01   -0.41322E-02 12255   0.569E-01    0.270E+00
RMM:   5    -0.185449278926E+03    0.12043E-01   -0.18130E-02 12647   0.355E-01    0.265E+00
RMM:   6    -0.185459750229E+03   -0.10471E-01   -0.24738E-02 11522   0.392E-01    0.276E+00
RMM:   7    -0.185430556684E+03    0.29194E-01   -0.67740E-03 11746   0.215E-01    0.777E-01
RMM:   8    -0.185428095296E+03    0.24614E-02   -0.95079E-03 12463   0.228E-01    0.410E-01
RMM:   9    -0.185428065017E+03    0.30279E-04   -0.21892E-03 13046   0.125E-01    0.482E-01
RMM:  10    -0.185427416393E+03    0.64862E-03   -0.97646E-04 13904   0.702E-02    0.234E-01
RMM:  11    -0.185427207023E+03    0.20937E-03   -0.38254E-04 12970   0.470E-02    0.118E-01
RMM:  12    -0.185427264763E+03   -0.57740E-04   -0.17356E-04 11366   0.341E-02    0.149E-01
RMM:  13    -0.185427191299E+03    0.73464E-04   -0.87134E-05  9737   0.241E-02    0.758E-02
RMM:  14    -0.185427174250E+03    0.17049E-04   -0.24706E-05  7552   0.144E-02    0.369E-02
RMM:  15    -0.185427177409E+03   -0.31590E-05   -0.77655E-06  6390   0.979E-03
  11 F= -.18542718E+03 E0= -.18542973E+03  d E =-.229264E+00  mag=    -0.0340
       N       E                     dE             d eps       ncg     rms          rms(c)
DAV:   1    -0.185517476973E+03   -0.90303E-01   -0.14625E+01 11040   0.103E+01    0.126E+00
RMM:   2    -0.185550134302E+03   -0.32657E-01   -0.33926E-01 10899   0.177E+00    0.162E+00
RMM:   3    -0.185544285110E+03    0.58492E-02   -0.17865E-02 11348   0.490E-01    0.103E+00
RMM:   4    -0.185543040825E+03    0.12443E-02   -0.52166E-03 11719   0.179E-01    0.110E+00
RMM:   5    -0.185546289588E+03   -0.32488E-02   -0.36448E-03 11339   0.153E-01    0.139E+00
RMM:   6    -0.185545054699E+03    0.12349E-02   -0.41045E-03 10948   0.167E-01    0.117E+00
RMM:   7    -0.185539272415E+03    0.57823E-02   -0.16269E-03 11267   0.108E-01    0.250E-01
RMM:   8    -0.185538773433E+03    0.49898E-03   -0.67091E-04 10981   0.574E-02    0.110E-01
RMM:   9    -0.185538722665E+03    0.50768E-04   -0.10781E-04  9818   0.288E-02    0.917E-02
RMM:  10    -0.185538703494E+03    0.19171E-04   -0.42515E-05  8398   0.168E-02    0.571E-02
RMM:  11    -0.185538709838E+03   -0.63436E-05   -0.22218E-05  7096   0.133E-02
  12 F= -.18553871E+03 E0= -.18554106E+03  d E =-.111532E+00  mag=    -0.0676
       N       E                     dE             d eps       ncg     rms          rms(c)
DAV:   1    -0.185559451726E+03   -0.20748E-01   -0.81241E+00 11040   0.771E+00    0.945E-01
RMM:   2    -0.185577057231E+03   -0.17606E-01   -0.18720E-01 10897   0.131E+00    0.118E+00
RMM:   3    -0.185574693118E+03    0.23641E-02   -0.99982E-03 11355   0.368E-01    0.812E-01
RMM:   4    -0.185573641943E+03    0.10512E-02   -0.28184E-03 11642   0.133E-01    0.823E-01
RMM:   5    -0.185575310098E+03   -0.16682E-02   -0.19732E-03 11319   0.113E-01    0.102E+00
RMM:   6    -0.185574439378E+03    0.87072E-03   -0.24680E-03 10953   0.129E-01    0.809E-01
RMM:   7    -0.185571580717E+03    0.28587E-02   -0.84720E-04 11089   0.775E-02    0.193E-01
RMM:   8    -0.185571344724E+03    0.23599E-03   -0.40941E-04 10693   0.435E-02    0.955E-02
RMM:   9    -0.185571314276E+03    0.30448E-04   -0.62203E-05  9171   0.226E-02    0.776E-02
RMM:  10    -0.185571303695E+03    0.10581E-04   -0.28547E-05  7637   0.142E-02    0.522E-02
RMM:  11    -0.185571315003E+03   -0.11308E-04   -0.15043E-05  6451   0.122E-02    0.479E-02
RMM:  12    -0.185571328039E+03   -0.13035E-04   -0.95159E-06  6322   0.101E-02    0.511E-02
RMM:  13    -0.185571338827E+03   -0.10789E-04   -0.68973E-06  6144   0.856E-03    0.460E-02
RMM:  14    -0.185571336326E+03    0.25010E-05   -0.16740E-06  5729   0.505E-03
  13 F= -.18557134E+03 E0= -.18557352E+03  d E =-.144159E+00  mag=    -0.1213
       N       E                     dE             d eps       ncg     rms          rms(c)
DAV:   1    -0.185662986656E+03   -0.91648E-01   -0.98902E+00 10912   0.868E+00    0.112E+00
RMM:   2    -0.185680138824E+03   -0.17152E-01   -0.24531E-01 10901   0.152E+00    0.147E+00
RMM:   3    -0.185674404533E+03    0.57343E-02   -0.15324E-02 11434   0.431E-01    0.854E-01
RMM:   4    -0.185671965971E+03    0.24386E-02   -0.67444E-03 11112   0.209E-01    0.990E-01
RMM:   5    -0.185671492387E+03    0.47358E-03   -0.24789E-03 11454   0.124E-01    0.910E-01
RMM:   6    -0.185671208769E+03    0.28362E-03   -0.21342E-03 11094   0.117E-01    0.849E-01
RMM:   7    -0.185668484343E+03    0.27244E-02   -0.94806E-04 11422   0.795E-02    0.242E-01
RMM:   8    -0.185668238570E+03    0.24577E-03   -0.40198E-04 11264   0.482E-02    0.131E-01
RMM:   9    -0.185668183027E+03    0.55544E-04   -0.99949E-05  9335   0.264E-02    0.101E-01
RMM:  10    -0.185668161998E+03    0.21028E-04   -0.38898E-05  8403   0.167E-02    0.585E-02
RMM:  11    -0.185668173151E+03   -0.11153E-04   -0.22948E-05  7030   0.139E-02    0.588E-02
RMM:  12    -0.185668186329E+03   -0.13178E-04   -0.17232E-05  6765   0.132E-02    0.561E-02
RMM:  13    -0.185668194862E+03   -0.85329E-05   -0.11182E-05  6307   0.110E-02
  14 F= -.18566819E+03 E0= -.18567011E+03  d E =-.968585E-01  mag=    -0.1871
       N       E                     dE             d eps       ncg     rms          rms(c)
DAV:   1    -0.185693922494E+03   -0.25736E-01   -0.39110E+00 11008   0.545E+00    0.712E-01
RMM:   2    -0.185699754950E+03   -0.58325E-02   -0.96996E-02 10904   0.952E-01    0.821E-01
RMM:   3    -0.185699134501E+03    0.62045E-03   -0.62490E-03 11404   0.276E-01    0.596E-01
RMM:   4    -0.185697529690E+03    0.16048E-02   -0.28130E-03 11099   0.136E-01    0.612E-01
RMM:   5    -0.185697356842E+03    0.17285E-03   -0.94892E-04 11414   0.768E-02    0.569E-01
RMM:   6    -0.185697092282E+03    0.26456E-03   -0.90592E-04 11031   0.752E-02    0.478E-01
RMM:   7    -0.185696262197E+03    0.83008E-03   -0.37289E-04 10710   0.496E-02    0.196E-01
RMM:   8    -0.185696160578E+03    0.10162E-03   -0.21144E-04 10204   0.351E-02    0.117E-01
RMM:   9    -0.185696100467E+03    0.60111E-04   -0.58587E-05  8515   0.205E-02    0.728E-02
RMM:  10    -0.185696090437E+03    0.10031E-04   -0.18265E-05  6745   0.124E-02    0.463E-02
RMM:  11    -0.185696095317E+03   -0.48803E-05   -0.10947E-05  6295   0.106E-02
  15 F= -.18569610E+03 E0= -.18569783E+03  d E =-.124759E+00  mag=    -0.2414
       N       E                     dE             d eps       ncg     rms          rms(c)
DAV:   1    -0.185697670772E+03   -0.15803E-02   -0.64997E-01 11312   0.222E+00    0.292E-01
RMM:   2    -0.185698615428E+03   -0.94466E-03   -0.16234E-02 10906   0.389E-01    0.323E-01
RMM:   3    -0.185698631727E+03   -0.16299E-04   -0.10778E-03 11334   0.115E-01    0.272E-01
RMM:   4    -0.185698367138E+03    0.26459E-03   -0.47024E-04 11160   0.557E-02    0.277E-01
RMM:   5    -0.185698241017E+03    0.12612E-03   -0.16706E-04 10112   0.328E-02    0.209E-01
RMM:   6    -0.185698242271E+03   -0.12541E-05   -0.17776E-04 10555   0.338E-02    0.189E-01
RMM:   7    -0.185698115724E+03    0.12655E-03   -0.75038E-05  8980   0.224E-02    0.905E-02
RMM:   8    -0.185698092727E+03    0.22997E-04   -0.35827E-05  8022   0.157E-02    0.480E-02
RMM:   9    -0.185698088435E+03    0.42924E-05   -0.10989E-05  6306   0.117E-02
  16 F= -.18569809E+03 E0= -.18569970E+03  d E =-.126752E+00  mag=    -0.2744
       N       E                     dE             d eps       ncg     rms          rms(c)
DAV:   1    -0.185736209414E+03   -0.38117E-01   -0.60534E+00 10912   0.687E+00    0.955E-01
RMM:   2    -0.185742296678E+03   -0.60873E-02   -0.15308E-01 10898   0.120E+00    0.903E-01
RMM:   3    -0.185744926849E+03   -0.26302E-02   -0.10453E-02 11446   0.345E-01    0.950E-01
RMM:   4    -0.185739006586E+03    0.59203E-02   -0.54062E-03 11060   0.188E-01    0.685E-01
RMM:   5    -0.185738293703E+03    0.71288E-03   -0.11209E-03 11742   0.856E-02    0.513E-01
RMM:   6    -0.185738005498E+03    0.28820E-03   -0.82951E-04 11285   0.726E-02    0.445E-01
RMM:   7    -0.185737486781E+03    0.51872E-03   -0.41909E-04 11306   0.511E-02    0.259E-01
RMM:   8    -0.185737342460E+03    0.14432E-03   -0.26872E-04 10661   0.416E-02    0.162E-01
RMM:   9    -0.185737198813E+03    0.14365E-03   -0.90670E-05  9174   0.250E-02    0.542E-02
RMM:  10    -0.185737188868E+03    0.99449E-05   -0.21612E-05  7216   0.130E-02
  17 F= -.18573719E+03 E0= -.18573870E+03  d E =-.391004E-01  mag=    -0.2891
       N       E                     dE             d eps       ncg     rms          rms(c)
DAV:   1    -0.185743916744E+03   -0.67179E-02   -0.56141E+00 10880   0.661E+00    0.912E-01
RMM:   2    -0.185749914183E+03   -0.59974E-02   -0.14260E-01 10897   0.116E+00    0.882E-01
RMM:   3    -0.185752165340E+03   -0.22512E-02   -0.98016E-03 11453   0.332E-01    0.919E-01
RMM:   4    -0.185746771719E+03    0.53936E-02   -0.49928E-03 11049   0.182E-01    0.668E-01
RMM:   5    -0.185745983028E+03    0.78869E-03   -0.10618E-03 11717   0.827E-02    0.475E-01
RMM:   6    -0.185745956671E+03    0.26357E-04   -0.84258E-04 11262   0.726E-02    0.468E-01
RMM:   7    -0.185745299014E+03    0.65766E-03   -0.43056E-04 11286   0.519E-02    0.245E-01
RMM:   8    -0.185745209732E+03    0.89283E-04   -0.26884E-04 10164   0.409E-02    0.181E-01
RMM:   9    -0.185745037420E+03    0.17231E-03   -0.94749E-05  9307   0.259E-02    0.475E-02
RMM:  10    -0.185745030409E+03    0.70104E-05   -0.20327E-05  7157   0.127E-02
  18 F= -.18574503E+03 E0= -.18574645E+03  d E =-.469420E-01  mag=    -0.2831
       N       E                     dE             d eps       ncg     rms          rms(c)
DAV:   1    -0.185746197225E+03   -0.11598E-02   -0.59306E-01 11024   0.215E+00    0.300E-01
RMM:   2    -0.185746804720E+03   -0.60750E-03   -0.15223E-02 10898   0.379E-01    0.297E-01
RMM:   3    -0.185747147719E+03   -0.34300E-03   -0.10859E-03 11395   0.110E-01    0.368E-01
RMM:   4    -0.185746611320E+03    0.53640E-03   -0.49757E-04 11062   0.598E-02    0.289E-01
RMM:   5    -0.185746358735E+03    0.25259E-03   -0.16218E-04  9969   0.330E-02    0.147E-01
RMM:   6    -0.185746374089E+03   -0.15354E-04   -0.11724E-04  9990   0.278E-02    0.162E-01
RMM:   7    -0.185746289299E+03    0.84790E-04   -0.52928E-05  8317   0.192E-02    0.775E-02
RMM:   8    -0.185746270891E+03    0.18409E-04   -0.28277E-05  7442   0.154E-02    0.439E-02
RMM:   9    -0.185746263584E+03    0.73064E-05   -0.98424E-06  6193   0.118E-02
  19 F= -.18574626E+03 E0= -.18574774E+03  d E =-.481751E-01  mag=    -0.2829
       N       E                     dE             d eps       ncg     rms          rms(c)
DAV:   1    -0.185773192690E+03   -0.26922E-01   -0.53958E-01 10928   0.188E+00    0.284E-01
RMM:   2    -0.185774275447E+03   -0.10828E-02   -0.12028E-02 10880   0.363E-01    0.337E-01
RMM:   3    -0.185774291652E+03   -0.16205E-04   -0.10882E-03 12168   0.995E-02    0.360E-01
RMM:   4    -0.185773914960E+03    0.37669E-03   -0.44116E-04 11208   0.521E-02    0.229E-01
RMM:   5    -0.185773761407E+03    0.15355E-03   -0.18019E-04 10335   0.338E-02    0.154E-01
RMM:   6    -0.185773712608E+03    0.48799E-04   -0.19529E-04 10528   0.314E-02    0.123E-01
RMM:   7    -0.185773660834E+03    0.51773E-04   -0.51319E-05  8202   0.178E-02    0.676E-02
RMM:   8    -0.185773642426E+03    0.18408E-04   -0.25546E-05  7224   0.135E-02    0.311E-02
RMM:   9    -0.185773637987E+03    0.44396E-05   -0.86855E-06  6280   0.105E-02
  20 F= -.18577364E+03 E0= -.18577511E+03  d E =-.273744E-01  mag=    -0.2809
       N       E                     dE             d eps       ncg     rms          rms(c)
DAV:   1    -0.185776689934E+03   -0.30475E-02   -0.12831E-01 11216   0.918E-01    0.149E-01
RMM:   2    -0.185776974322E+03   -0.28439E-03   -0.29865E-03 10893   0.185E-01    0.171E-01
RMM:   3    -0.185777008669E+03   -0.34347E-04   -0.32539E-04 11644   0.516E-02    0.196E-01
RMM:   4    -0.185776850757E+03    0.15791E-03   -0.10114E-04  9796   0.254E-02    0.929E-02
RMM:   5    -0.185776845340E+03    0.54172E-05   -0.36359E-05  7960   0.164E-02
  21 F= -.18577685E+03 E0= -.18577837E+03  d E =-.305818E-01  mag=    -0.2786
       N       E                     dE             d eps       ncg     rms          rms(c)
DAV:   1    -0.185802685370E+03   -0.25835E-01   -0.54890E-01 10912   0.206E+00    0.388E-01
RMM:   2    -0.185805625612E+03   -0.29402E-02   -0.16250E-02 10889   0.428E-01    0.751E-01
RMM:   3    -0.185803509030E+03    0.21166E-02   -0.19058E-03 11456   0.132E-01    0.344E-01
RMM:   4    -0.185803148050E+03    0.36098E-03   -0.55025E-04 11920   0.597E-02    0.264E-01
RMM:   5    -0.185803215482E+03   -0.67432E-04   -0.22297E-04 10804   0.385E-02    0.286E-01
RMM:   6    -0.185803089059E+03    0.12642E-03   -0.34308E-04 11155   0.434E-02    0.207E-01
RMM:   7    -0.185802956180E+03    0.13288E-03   -0.14239E-04  9605   0.306E-02    0.130E-01
RMM:   8    -0.185802893217E+03    0.62964E-04   -0.55393E-05  9091   0.195E-02    0.500E-02
RMM:   9    -0.185802879754E+03    0.13462E-04   -0.14503E-05  6664   0.126E-02    0.372E-02
RMM:  10    -0.185802875875E+03    0.38793E-05   -0.56063E-06  6160   0.842E-03
  22 F= -.18580288E+03 E0= -.18580438E+03  d E =-.260305E-01  mag=    -0.2753
       N       E                     dE             d eps       ncg     rms          rms(c)
DAV:   1    -0.185823230058E+03   -0.20350E-01   -0.12743E+00 10912   0.314E+00    0.569E-01
RMM:   2    -0.185829231269E+03   -0.60012E-02   -0.37197E-02 10894   0.646E-01    0.106E+00
RMM:   3    -0.185825205294E+03    0.40260E-02   -0.40803E-03 11658   0.194E-01    0.546E-01
RMM:   4    -0.185824950078E+03    0.25522E-03   -0.12609E-03 11812   0.920E-02    0.546E-01
RMM:   5    -0.185824124444E+03    0.82563E-03   -0.58543E-04 11162   0.615E-02    0.316E-01
RMM:   6    -0.185824354258E+03   -0.22981E-03   -0.81138E-04 11219   0.689E-02    0.393E-01
RMM:   7    -0.185823819574E+03    0.53468E-03   -0.34579E-04 10472   0.465E-02    0.177E-01
RMM:   8    -0.185823723823E+03    0.95751E-04   -0.16279E-04 10153   0.310E-02    0.105E-01
RMM:   9    -0.185823666076E+03    0.57748E-04   -0.51758E-05  8277   0.192E-02    0.545E-02
RMM:  10    -0.185823656078E+03    0.99979E-05   -0.12640E-05  6478   0.107E-02
  23 F= -.18582366E+03 E0= -.18582517E+03  d E =-.468107E-01  mag=    -0.2735
       N       E                     dE             d eps       ncg     rms          rms(c)
DAV:   1    -0.185824638858E+03   -0.97278E-03   -0.11595E-01 11216   0.945E-01    0.173E-01
RMM:   2    -0.185825220166E+03   -0.58131E-03   -0.34392E-03 10895   0.196E-01    0.320E-01
RMM:   3    -0.185824820330E+03    0.39984E-03   -0.40248E-04 11453   0.612E-02    0.166E-01
RMM:   4    -0.185824778560E+03    0.41770E-04   -0.11740E-04 10257   0.283E-02    0.160E-01
RMM:   5    -0.185824713741E+03    0.64819E-04   -0.51264E-05  8749   0.196E-02    0.968E-02
RMM:   6    -0.185824771390E+03   -0.57649E-04   -0.83829E-05  9229   0.236E-02    0.151E-01
RMM:   7    -0.185824685049E+03    0.86341E-04   -0.41960E-05  8071   0.180E-02    0.492E-02
RMM:   8    -0.185824678498E+03    0.65519E-05   -0.13534E-05  6663   0.115E-02
  24 F= -.18582468E+03 E0= -.18582618E+03  d E =-.478332E-01  mag=    -0.2709
       N       E                     dE             d eps       ncg     rms          rms(c)
DAV:   1    -0.185843110740E+03   -0.18426E-01   -0.69796E-01 10896   0.230E+00    0.435E-01
RMM:   2    -0.185846464501E+03   -0.33538E-02   -0.22068E-02 10884   0.480E-01    0.792E-01
RMM:   3    -0.185843810956E+03    0.26535E-02   -0.27780E-03 11379   0.155E-01    0.422E-01
RMM:   4    -0.185842992294E+03    0.81866E-03   -0.80532E-04 12042   0.733E-02    0.230E-01
RMM:   5    -0.185843052073E+03   -0.59779E-04   -0.34055E-04 11548   0.466E-02    0.303E-01
RMM:   6    -0.185842841667E+03    0.21041E-03   -0.32762E-04 11885   0.410E-02    0.193E-01
RMM:   7    -0.185842730914E+03    0.11075E-03   -0.78088E-05  9477   0.243E-02    0.111E-01
RMM:   8    -0.185842689667E+03    0.41247E-04   -0.73606E-05  9182   0.209E-02    0.517E-02
RMM:   9    -0.185842680286E+03    0.93808E-05   -0.20639E-05  7097   0.147E-02
  25 F= -.18584268E+03 E0= -.18584427E+03  d E =-.180018E-01  mag=    -0.2722
       N       E                     dE             d eps       ncg     rms          rms(c)
DAV:   1    -0.185842848343E+03   -0.15868E-03   -0.10479E-02 11616   0.283E-01    0.564E-02
RMM:   2    -0.185842906422E+03   -0.58078E-04   -0.35216E-04 10899   0.603E-02    0.102E-01
RMM:   3    -0.185842859339E+03    0.47082E-04   -0.40357E-05  7889   0.197E-02    0.488E-02
RMM:   4    -0.185842852862E+03    0.64776E-05   -0.13457E-05  6432   0.129E-02
  26 F= -.18584285E+03 E0= -.18584447E+03  d E =-.181744E-01  mag=    -0.2719
       N       E                     dE             d eps       ncg     rms          rms(c)
DAV:   1    -0.185858575009E+03   -0.15716E-01   -0.68250E-01 10896   0.228E+00    0.448E-01
RMM:   2    -0.185863017184E+03   -0.44422E-02   -0.22102E-02 10884   0.487E-01    0.909E-01
RMM:   3    -0.185859789608E+03    0.32276E-02   -0.32671E-03 11285   0.163E-01    0.453E-01
RMM:   4    -0.185858908929E+03    0.88068E-03   -0.94774E-04 11795   0.828E-02    0.287E-01
RMM:   5    -0.185858685513E+03    0.22342E-03   -0.23563E-04 11421   0.400E-02    0.202E-01
RMM:   6    -0.185858654231E+03    0.31282E-04   -0.27850E-04 11539   0.376E-02    0.189E-01
RMM:   7    -0.185858559094E+03    0.95138E-04   -0.95191E-05  9944   0.251E-02    0.125E-01
RMM:   8    -0.185858503423E+03    0.55671E-04   -0.71625E-05  9047   0.197E-02    0.430E-02
RMM:   9    -0.185858496606E+03    0.68167E-05   -0.20512E-05  6903   0.143E-02
  27 F= -.18585850E+03 E0= -.18586016E+03  d E =-.156437E-01  mag=    -0.2742
       N       E                     dE             d eps       ncg     rms          rms(c)
DAV:   1    -0.185859941339E+03   -0.14379E-02   -0.90635E-02 10928   0.832E-01    0.157E-01
RMM:   2    -0.185860400271E+03   -0.45893E-03   -0.28957E-03 10883   0.175E-01    0.282E-01
RMM:   3    -0.185860098202E+03    0.30207E-03   -0.39073E-04 11511   0.556E-02    0.159E-01
RMM:   4    -0.185860042714E+03    0.55488E-04   -0.12236E-04 10588   0.299E-02    0.152E-01
RMM:   5    -0.185859957565E+03    0.85149E-04   -0.36701E-05  7924   0.166E-02    0.581E-02
RMM:   6    -0.185859970838E+03   -0.13272E-04   -0.35150E-05  7803   0.167E-02    0.838E-02
RMM:   7    -0.185859944683E+03    0.26154E-04   -0.18647E-05  6802   0.140E-02    0.381E-02
RMM:   8    -0.185859941094E+03    0.35893E-05   -0.79640E-06  6143   0.931E-03
  28 F= -.18585994E+03 E0= -.18586160E+03  d E =-.170882E-01  mag=    -0.2756
       N       E                     dE             d eps       ncg     rms          rms(c)
DAV:   1    -0.185866278908E+03   -0.63342E-02   -0.21095E-01 10896   0.126E+00    0.165E-01
RMM:   2    -0.185867092477E+03   -0.81357E-03   -0.54629E-03 10908   0.235E-01    0.284E-01
RMM:   3    -0.185866781022E+03    0.31146E-03   -0.52285E-04 11436   0.723E-02    0.205E-01
RMM:   4    -0.185866676863E+03    0.10416E-03   -0.14816E-04 11567   0.310E-02    0.147E-01
RMM:   5    -0.185866609446E+03    0.67417E-04   -0.39680E-05  8473   0.174E-02    0.830E-02
RMM:   6    -0.185866629624E+03   -0.20178E-04   -0.62853E-05  9124   0.194E-02    0.111E-01
RMM:   7    -0.185866590374E+03    0.39250E-04   -0.26394E-05  7274   0.142E-02    0.489E-02
RMM:   8    -0.185866580643E+03    0.97319E-05   -0.13768E-05  6257   0.119E-02
  29 F= -.18586658E+03 E0= -.18586817E+03  d E =-.663955E-02  mag=    -0.2767
       N       E                     dE             d eps       ncg     rms          rms(c)
DAV:   1    -0.185867743546E+03   -0.11532E-02   -0.94979E-02 10944   0.845E-01    0.112E-01
RMM:   2    -0.185868167014E+03   -0.42347E-03   -0.25033E-03 10896   0.161E-01    0.209E-01
RMM:   3    -0.185867976643E+03    0.19037E-03   -0.26357E-04 11369   0.494E-02    0.137E-01
RMM:   4    -0.185867920887E+03    0.55755E-04   -0.67273E-05 10018   0.213E-02    0.853E-02
RMM:   5    -0.185867904716E+03    0.16171E-04   -0.15525E-05  6592   0.123E-02    0.686E-02
RMM:   6    -0.185867910005E+03   -0.52882E-05   -0.28592E-05  7580   0.153E-02
  30 F= -.18586791E+03 E0= -.18586939E+03  d E =-.796891E-02  mag=    -0.2775
       N       E                     dE             d eps       ncg     rms          rms(c)
DAV:   1    -0.185871648613E+03   -0.37439E-02   -0.67524E-02 10992   0.747E-01    0.106E-01
RMM:   2    -0.185872188345E+03   -0.53973E-03   -0.19500E-03 10892   0.144E-01    0.289E-01
RMM:   3    -0.185871804541E+03    0.38380E-03   -0.20466E-04 11147   0.472E-02    0.102E-01
RMM:   4    -0.185871808990E+03   -0.44481E-05   -0.54118E-05  8902   0.194E-02
  31 F= -.18587181E+03 E0= -.18587329E+03  d E =-.389898E-02  mag=    -0.2780
       N       E                     dE             d eps       ncg     rms          rms(c)
DAV:   1    -0.185876801422E+03   -0.49969E-02   -0.52424E-01 10880   0.208E+00    0.276E-01
RMM:   2    -0.185879725788E+03   -0.29244E-02   -0.14857E-02 10898   0.397E-01    0.628E-01
RMM:   3    -0.185878028986E+03    0.16968E-02   -0.15215E-03 11465   0.125E-01    0.315E-01
RMM:   4    -0.185877905370E+03    0.12362E-03   -0.41442E-04 12185   0.524E-02    0.287E-01
RMM:   5    -0.185877607711E+03    0.29766E-03   -0.11172E-04 10979   0.273E-02    0.104E-01
RMM:   6    -0.185877709589E+03   -0.10188E-03   -0.17554E-04 11312   0.309E-02    0.203E-01
RMM:   7    -0.185877578654E+03    0.13094E-03   -0.73253E-05  9765   0.224E-02    0.719E-02
RMM:   8    -0.185877566302E+03    0.12351E-04   -0.49311E-05  8635   0.179E-02    0.541E-02
RMM:   9    -0.185877553894E+03    0.12408E-04   -0.16036E-05  6659   0.136E-02    0.307E-02
RMM:  10    -0.185877550958E+03    0.29365E-05   -0.64710E-06  6099   0.900E-03
  32 F= -.18587755E+03 E0= -.18587894E+03  d E =-.964095E-02  mag=    -0.2793
       N       E                     dE             d eps       ncg     rms          rms(c)
DAV:   1    -0.185878035439E+03   -0.48154E-03   -0.89140E-02 11008   0.860E-01    0.108E-01
RMM:   2    -0.185878523454E+03   -0.48802E-03   -0.25601E-03 10895   0.165E-01    0.241E-01
RMM:   3    -0.185878261180E+03    0.26227E-03   -0.27202E-04 11343   0.527E-02    0.130E-01
RMM:   4    -0.185878222447E+03    0.38732E-04   -0.58401E-05  9362   0.200E-02    0.963E-02
RMM:   5    -0.185878191771E+03    0.30676E-04   -0.13167E-05  6485   0.118E-02    0.487E-02
RMM:   6    -0.185878207330E+03   -0.15559E-04   -0.24139E-05  7334   0.140E-02    0.793E-02
RMM:   7    -0.185878185381E+03    0.21948E-04   -0.12306E-05  6237   0.121E-02    0.271E-02
RMM:   8    -0.185878185239E+03    0.14270E-06   -0.85292E-06  6057   0.908E-03
  33 F= -.18587819E+03 E0= -.18587953E+03  d E =-.102752E-01  mag=    -0.2808
       N       E                     dE             d eps       ncg     rms          rms(c)
DAV:   1    -0.185885218555E+03   -0.70332E-02   -0.20596E-01 10880   0.131E+00    0.168E-01
RMM:   2    -0.185886588484E+03   -0.13699E-02   -0.56350E-03 10883   0.242E-01    0.423E-01
RMM:   3    -0.185885735962E+03    0.85252E-03   -0.65960E-04 11149   0.808E-02    0.193E-01
RMM:   4    -0.185885611668E+03    0.12429E-03   -0.10247E-04 11088   0.266E-02    0.101E-01
RMM:   5    -0.185885601976E+03    0.96916E-05   -0.29708E-05  8047   0.153E-02
  34 F= -.18588560E+03 E0= -.18588683E+03  d E =-.741674E-02  mag=    -0.2815
       N       E                     dE             d eps       ncg     rms          rms(c)
DAV:   1    -0.185891017024E+03   -0.54054E-02   -0.17714E+00 10880   0.385E+00    0.524E-01
RMM:   2    -0.185905543601E+03   -0.14527E-01   -0.49513E-02 10882   0.728E-01    0.149E+00
RMM:   3    -0.185895205754E+03    0.10338E-01   -0.58875E-03 11134   0.241E-01    0.528E-01
RMM:   4    -0.185894839591E+03    0.36616E-03   -0.11377E-03 12736   0.874E-02    0.481E-01
RMM:   5    -0.185894044959E+03    0.79463E-03   -0.32663E-04 12128   0.454E-02    0.226E-01
RMM:   6    -0.185893952714E+03    0.92244E-04   -0.36929E-04 11970   0.466E-02    0.143E-01
RMM:   7    -0.185893905964E+03    0.46750E-04   -0.12193E-04 11040   0.284E-02    0.132E-01
RMM:   8    -0.185893851444E+03    0.54520E-04   -0.76910E-05 10382   0.208E-02    0.457E-02
RMM:   9    -0.185893838201E+03    0.13244E-04   -0.25022E-05  7553   0.146E-02    0.305E-02
RMM:  10    -0.185893836036E+03    0.21648E-05   -0.11122E-05  6411   0.108E-02
  35 F= -.18589384E+03 E0= -.18589511E+03  d E =-.156508E-01  mag=    -0.2788
       N       E                     dE             d eps       ncg     rms          rms(c)
DAV:   1    -0.185898201567E+03   -0.43634E-02   -0.15618E-01 11104   0.116E+00    0.162E-01
RMM:   2    -0.185899578826E+03   -0.13773E-02   -0.43033E-03 10880   0.210E-01    0.448E-01
RMM:   3    -0.185898607405E+03    0.97142E-03   -0.54454E-04 11100   0.740E-02    0.167E-01
RMM:   4    -0.185898561881E+03    0.45524E-04   -0.88266E-05 10681   0.252E-02    0.140E-01
RMM:   5    -0.185898491540E+03    0.70341E-04   -0.24181E-05  7452   0.144E-02    0.633E-02
RMM:   6    -0.185898511349E+03   -0.19810E-04   -0.29716E-05  7756   0.162E-02    0.874E-02
RMM:   7    -0.185898481060E+03    0.30290E-04   -0.16043E-05  6495   0.135E-02    0.341E-02
RMM:   8    -0.185898477092E+03    0.39674E-05   -0.74636E-06  6092   0.907E-03
  36 F= -.18589848E+03 E0= -.18589977E+03  d E =-.464106E-02  mag=    -0.2764
       N       E                     dE             d eps       ncg     rms          rms(c)
DAV:   1    -0.185902321469E+03   -0.38404E-02   -0.11111E+00 10880   0.308E+00    0.413E-01
RMM:   2    -0.185910464850E+03   -0.81434E-02   -0.29829E-02 10882   0.552E-01    0.104E+00
RMM:   3    -0.185905169153E+03    0.52957E-02   -0.34888E-03 11150   0.188E-01    0.434E-01
RMM:   4    -0.185904624809E+03    0.54434E-03   -0.53431E-04 12852   0.614E-02    0.281E-01
RMM:   5    -0.185904393101E+03    0.23171E-03   -0.14670E-04 11456   0.311E-02    0.181E-01
RMM:   6    -0.185904487420E+03   -0.94319E-04   -0.21468E-04 11629   0.362E-02    0.233E-01
RMM:   7    -0.185904305999E+03    0.18142E-03   -0.93198E-05 10478   0.252E-02    0.942E-02
RMM:   8    -0.185904266949E+03    0.39050E-04   -0.61582E-05  8371   0.171E-02    0.364E-02
RMM:   9    -0.185904263023E+03    0.39262E-05   -0.13782E-05  6510   0.129E-02
  37 F= -.18590426E+03 E0= -.18590554E+03  d E =-.104270E-01  mag=    -0.2719
       N       E                     dE             d eps       ncg     rms          rms(c)
DAV:   1    -0.185909661785E+03   -0.53948E-02   -0.68037E-02 11472   0.694E-01    0.857E-02
RMM:   2    -0.185909886895E+03   -0.22511E-03   -0.16819E-03 10908   0.130E-01    0.132E-01
RMM:   3    -0.185909850039E+03    0.36856E-04   -0.17934E-04 10980   0.425E-02    0.119E-01
RMM:   4    -0.185909798919E+03    0.51120E-04   -0.34912E-05  7809   0.158E-02    0.598E-02
RMM:   5    -0.185909790041E+03    0.88772E-05   -0.10374E-05  6319   0.118E-02
  38 F= -.18590979E+03 E0= -.18591102E+03  d E =-.552702E-02  mag=    -0.2694
       N       E                     dE             d eps       ncg     rms          rms(c)
DAV:   1    -0.185913275069E+03   -0.34761E-02   -0.17293E-01 10976   0.111E+00    0.158E-01
RMM:   2    -0.185914418745E+03   -0.11437E-02   -0.44005E-03 10917   0.209E-01    0.425E-01
RMM:   3    -0.185913665411E+03    0.75333E-03   -0.55316E-04 11288   0.722E-02    0.155E-01
RMM:   4    -0.185913578478E+03    0.86934E-04   -0.11546E-04 10695   0.265E-02    0.931E-02
RMM:   5    -0.185913581782E+03   -0.33044E-05   -0.34788E-05  7862   0.174E-02
  39 F= -.18591358E+03 E0= -.18591482E+03  d E =-.931876E-02  mag=    -0.2677
       N       E                     dE             d eps       ncg     rms          rms(c)
DAV:   1    -0.185913588898E+03   -0.10421E-04   -0.32993E-03 11816   0.155E-01    0.734E-02
RMM:   2    -0.185914015367E+03   -0.42647E-03   -0.37408E-04 10751   0.535E-02    0.302E-01
RMM:   3    -0.185913611727E+03    0.40364E-03   -0.10381E-04  9404   0.297E-02    0.780E-02
RMM:   4    -0.185913571023E+03    0.40704E-04   -0.19714E-05  7178   0.127E-02    0.275E-02
RMM:   5    -0.185913571592E+03   -0.56923E-06   -0.67634E-06  6063   0.826E-03
  40 F= -.18591357E+03 E0= -.18591482E+03  d E =-.930857E-02  mag=    -0.2666
       N       E                     dE             d eps       ncg     rms          rms(c)
DAV:   1    -0.185915581163E+03   -0.20101E-02   -0.49860E-02 11016   0.610E-01    0.742E-02
RMM:   2    -0.185915900062E+03   -0.31890E-03   -0.12109E-03 10880   0.113E-01    0.223E-01
RMM:   3    -0.185915674073E+03    0.22599E-03   -0.12291E-04 10506   0.353E-02    0.639E-02
RMM:   4    -0.185915672708E+03    0.13650E-05   -0.29709E-05  7648   0.149E-02
  41 F= -.18591567E+03 E0= -.18591685E+03  d E =-.210112E-02  mag=    -0.2663
       N       E                     dE             d eps       ncg     rms          rms(c)
DAV:   1    -0.185917075916E+03   -0.14018E-02   -0.79589E-02 10928   0.769E-01    0.969E-02
RMM:   2    -0.185917479260E+03   -0.40334E-03   -0.18683E-03 10884   0.140E-01    0.276E-01
RMM:   3    -0.185917197072E+03    0.28219E-03   -0.16134E-04 10885   0.417E-02    0.798E-02
RMM:   4    -0.185917189114E+03    0.79582E-05   -0.68408E-05  9618   0.205E-02
  42 F= -.18591719E+03 E0= -.18591835E+03  d E =-.361752E-02  mag=    -0.2663
       N       E                     dE             d eps       ncg     rms          rms(c)
DAV:   1    -0.185919910409E+03   -0.27133E-02   -0.67204E-02 11000   0.717E-01    0.101E-01
RMM:   2    -0.185920380113E+03   -0.46970E-03   -0.18177E-03 10911   0.133E-01    0.322E-01
RMM:   3    -0.185920034808E+03    0.34531E-03   -0.16659E-04 10630   0.424E-02    0.706E-02
RMM:   4    -0.185920023540E+03    0.11268E-04   -0.72883E-05  9659   0.215E-02    0.851E-02
RMM:   5    -0.185920026509E+03   -0.29685E-05   -0.38175E-05  8159   0.170E-02
  43 F= -.18592003E+03 E0= -.18592116E+03  d E =-.283739E-02  mag=    -0.2668
       N       E                     dE             d eps       ncg     rms          rms(c)
DAV:   1    -0.185921053149E+03   -0.10296E-02   -0.20146E-01 10960   0.124E+00    0.150E-01
RMM:   2    -0.185921891618E+03   -0.83847E-03   -0.53557E-03 10904   0.232E-01    0.368E-01
RMM:   3    -0.185921478103E+03    0.41351E-03   -0.46615E-04 11694   0.680E-02    0.125E-01
RMM:   4    -0.185921454269E+03    0.23835E-04   -0.15543E-04 10261   0.316E-02    0.151E-01
RMM:   5    -0.185921383567E+03    0.70701E-04   -0.41103E-05  8641   0.179E-02    0.642E-02
RMM:   6    -0.185921399327E+03   -0.15759E-04   -0.60955E-05  9162   0.202E-02    0.818E-02
RMM:   7    -0.185921377733E+03    0.21593E-04   -0.36710E-05  7734   0.168E-02    0.525E-02
RMM:   8    -0.185921370045E+03    0.76880E-05   -0.12204E-05  6363   0.120E-02
  44 F= -.18592137E+03 E0= -.18592266E+03  d E =-.418093E-02  mag=    -0.2677
       N       E                     dE             d eps       ncg     rms          rms(c)
DAV:   1    -0.185921510110E+03   -0.13238E-03   -0.12225E-02 11328   0.306E-01    0.399E-02
RMM:   2    -0.185921613374E+03   -0.10326E-03   -0.34468E-04 10911   0.588E-02    0.151E-01
RMM:   3    -0.185921536075E+03    0.77299E-04   -0.27940E-05  7268   0.185E-02    0.287E-02
RMM:   4    -0.185921530480E+03    0.55944E-05   -0.10226E-05  5855   0.108E-02
  45 F= -.18592153E+03 E0= -.18592276E+03  d E =-.434137E-02  mag=    -0.2677
       N       E                     dE             d eps       ncg     rms          rms(c)
DAV:   1    -0.185923453678E+03   -0.19176E-02   -0.94892E-02 10944   0.888E-01    0.949E-02
RMM:   2    -0.185923936518E+03   -0.48284E-03   -0.23632E-03 10886   0.154E-01    0.297E-01
RMM:   3    -0.185923646671E+03    0.28985E-03   -0.16432E-04 10582   0.455E-02    0.748E-02
RMM:   4    -0.185923639565E+03    0.71063E-05   -0.40162E-05  8187   0.174E-02
  46 F= -.18592364E+03 E0= -.18592493E+03  d E =-.210908E-02  mag=    -0.2682
       N       E                     dE             d eps       ncg     rms          rms(c)
DAV:   1    -0.185924762521E+03   -0.11158E-02   -0.34185E-01 10912   0.168E+00    0.199E-01
RMM:   2    -0.185926285956E+03   -0.15234E-02   -0.83976E-03 10884   0.290E-01    0.517E-01
RMM:   3    -0.185925387200E+03    0.89876E-03   -0.60730E-04 11407   0.861E-02    0.157E-01
RMM:   4    -0.185925365977E+03    0.21223E-04   -0.22876E-04 11272   0.372E-02    0.184E-01
RMM:   5    -0.185925292903E+03    0.73075E-04   -0.82005E-05  9476   0.241E-02    0.118E-01
RMM:   6    -0.185925300341E+03   -0.74379E-05   -0.12396E-04 10197   0.280E-02    0.116E-01
RMM:   7    -0.185925238118E+03    0.62223E-04   -0.44644E-05  8020   0.176E-02    0.392E-02
RMM:   8    -0.185925232988E+03    0.51295E-05   -0.19815E-05  6727   0.135E-02
  47 F= -.18592523E+03 E0= -.18592649E+03  d E =-.370251E-02  mag=    -0.2689
       N       E                     dE             d eps       ncg     rms          rms(c)
DAV:   1    -0.185927343025E+03   -0.21049E-02   -0.76399E-02 10944   0.796E-01    0.673E-02
RMM:   2    -0.185927554388E+03   -0.21136E-03   -0.17865E-03 10880   0.131E-01    0.131E-01
RMM:   3    -0.185927506153E+03    0.48235E-04   -0.10447E-04 10685   0.379E-02    0.616E-02
RMM:   4    -0.185927502323E+03    0.38296E-05   -0.24497E-05  7223   0.133E-02
  48 F= -.18592750E+03 E0= -.18592877E+03  d E =-.226933E-02  mag=    -0.2686
       N       E                     dE             d eps       ncg     rms          rms(c)
DAV:   1    -0.185929961055E+03   -0.24549E-02   -0.68764E-01 10928   0.239E+00    0.207E-01
RMM:   2    -0.185931939889E+03   -0.19788E-02   -0.15678E-02 10880   0.389E-01    0.437E-01
RMM:   3    -0.185931405545E+03    0.53434E-03   -0.94932E-04 11521   0.112E-01    0.214E-01
RMM:   4    -0.185931277208E+03    0.12834E-03   -0.22450E-04 11841   0.363E-02    0.140E-01
RMM:   5    -0.185931240387E+03    0.36822E-04   -0.81477E-05  9700   0.232E-02    0.110E-01
RMM:   6    -0.185931252794E+03   -0.12407E-04   -0.13607E-04 10624   0.288E-02    0.119E-01
RMM:   7    -0.185931188821E+03    0.63972E-04   -0.53893E-05  8383   0.196E-02    0.492E-02
RMM:   8    -0.185931183346E+03    0.54755E-05   -0.24398E-05  7125   0.145E-02
  49 F= -.18593118E+03 E0= -.18593230E+03  d E =-.595036E-02  mag=    -0.2676
       N       E                     dE             d eps       ncg     rms          rms(c)
DAV:   1    -0.185934829901E+03   -0.36411E-02   -0.19002E-01 11192   0.124E+00    0.102E-01
RMM:   2    -0.185935417617E+03   -0.58772E-03   -0.43826E-03 10884   0.200E-01    0.237E-01
RMM:   3    -0.185935225137E+03    0.19248E-03   -0.24655E-04 10729   0.598E-02    0.695E-02
RMM:   4    -0.185935221573E+03    0.35633E-05   -0.70890E-05  9646   0.203E-02
  50 F= -.18593522E+03 E0= -.18593627E+03  d E =-.403823E-02  mag=    -0.2663
       N       E                     dE             d eps       ncg     rms          rms(c)
DAV:   1    -0.185937625306E+03   -0.24002E-02   -0.38503E-01 11144   0.176E+00    0.153E-01
RMM:   2    -0.185938678678E+03   -0.10534E-02   -0.87133E-03 10887   0.281E-01    0.280E-01
RMM:   3    -0.185938405533E+03    0.27315E-03   -0.47700E-04 11169   0.822E-02    0.133E-01
RMM:   4    -0.185938416400E+03   -0.10867E-04   -0.15066E-04 10882   0.290E-02    0.163E-01
RMM:   5    -0.185938373392E+03    0.43008E-04   -0.74057E-05  9348   0.223E-02    0.122E-01
RMM:   6    -0.185938395827E+03   -0.22434E-04   -0.88026E-05  9354   0.239E-02    0.120E-01
RMM:   7    -0.185938337119E+03    0.58707E-04   -0.67258E-05  8979   0.213E-02    0.687E-02
RMM:   8    -0.185938324086E+03    0.13033E-04   -0.13655E-05  6523   0.115E-02    0.436E-02
RMM:   9    -0.185938314603E+03    0.94831E-05   -0.72082E-06  6067   0.103E-02
  51 F= -.18593831E+03 E0= -.18593939E+03  d E =-.713126E-02  mag=    -0.2616
       N       E                     dE             d eps       ncg     rms          rms(c)
DAV:   1    -0.185938608695E+03   -0.28461E-03   -0.76911E-02 11360   0.789E-01    0.614E-02
RMM:   2    -0.185938823627E+03   -0.21493E-03   -0.17929E-03 10887   0.128E-01    0.126E-01
RMM:   3    -0.185938774979E+03    0.48648E-04   -0.96934E-05 10509   0.373E-02    0.462E-02
RMM:   4    -0.185938770101E+03    0.48780E-05   -0.20347E-05  7007   0.119E-02
  52 F= -.18593877E+03 E0= -.18593977E+03  d E =-.758676E-02  mag=    -0.2595
       N       E                     dE             d eps       ncg     rms          rms(c)
DAV:   1    -0.185941079733E+03   -0.23048E-02   -0.31183E-01 11072   0.159E+00    0.132E-01
RMM:   2    -0.185942247137E+03   -0.11674E-02   -0.68688E-03 10880   0.247E-01    0.380E-01
RMM:   3    -0.185941721420E+03    0.52572E-03   -0.37876E-04 10891   0.728E-02    0.121E-01
RMM:   4    -0.185941698146E+03    0.23274E-04   -0.72824E-05  9901   0.212E-02    0.994E-02
RMM:   5    -0.185941698057E+03    0.89391E-07   -0.49390E-05  8708   0.188E-02
  53 F= -.18594170E+03 E0= -.18594266E+03  d E =-.292796E-02  mag=    -0.2549
       N       E                     dE             d eps       ncg     rms          rms(c)
DAV:   1    -0.185941732777E+03   -0.34631E-04   -0.55033E-01 11072   0.211E+00    0.206E-01
RMM:   2    -0.185945538159E+03   -0.38054E-02   -0.12844E-02 10882   0.334E-01    0.819E-01
RMM:   3    -0.185942821640E+03    0.27165E-02   -0.95636E-04 10815   0.107E-01    0.144E-01
RMM:   4    -0.185942769209E+03    0.52432E-04   -0.22297E-04 11265   0.366E-02    0.179E-01
RMM:   5    -0.185942734611E+03    0.34598E-04   -0.70763E-05  9620   0.213E-02    0.162E-01
RMM:   6    -0.185942733219E+03    0.13919E-05   -0.85836E-05  9088   0.235E-02
  54 F= -.18594273E+03 E0= -.18594373E+03  d E =-.396312E-02  mag=    -0.2475
       N       E                     dE             d eps       ncg     rms          rms(c)
DAV:   1    -0.185943688295E+03   -0.95368E-03   -0.84437E-02 11456   0.831E-01    0.765E-02
RMM:   2    -0.185944006915E+03   -0.31862E-03   -0.18481E-03 10904   0.128E-01    0.164E-01
RMM:   3    -0.185943868061E+03    0.13885E-03   -0.13515E-04 10319   0.392E-02    0.929E-02
RMM:   4    -0.185943844759E+03    0.23302E-04   -0.32228E-05  7737   0.144E-02    0.529E-02
RMM:   5    -0.185943847348E+03   -0.25895E-05   -0.11343E-05  6417   0.119E-02
  55 F= -.18594385E+03 E0= -.18594481E+03  d E =-.111413E-02  mag=    -0.2412
       N       E                     dE             d eps       ncg     rms          rms(c)
DAV:   1    -0.185945756835E+03   -0.19121E-02   -0.77007E-01 11160   0.251E+00    0.181E-01
RMM:   2    -0.185947471486E+03   -0.17147E-02   -0.16476E-02 10894   0.379E-01    0.267E-01
RMM:   3    -0.185947350322E+03    0.12116E-03   -0.75034E-04 11286   0.107E-01    0.179E-01
RMM:   4    -0.185947263635E+03    0.86687E-04   -0.17459E-04 11820   0.308E-02    0.148E-01
RMM:   5    -0.185947307245E+03   -0.43610E-04   -0.89972E-05  9910   0.238E-02    0.173E-01
RMM:   6    -0.185947329378E+03   -0.22133E-04   -0.10342E-04 10120   0.260E-02    0.165E-01
RMM:   7    -0.185947236774E+03    0.92604E-04   -0.76279E-05  8991   0.231E-02    0.802E-02
RMM:   8    -0.185947206571E+03    0.30202E-04   -0.27673E-05  7181   0.148E-02    0.448E-02
RMM:   9    -0.185947199337E+03    0.72347E-05   -0.76867E-06  6145   0.104E-02
  56 F= -.18594720E+03 E0= -.18594822E+03  d E =-.446612E-02  mag=    -0.2267
       N       E                     dE             d eps       ncg     rms          rms(c)
DAV:   1    -0.185946124908E+03    0.10817E-02   -0.30887E+00 11152   0.503E+00    0.350E-01
RMM:   2    -0.185954246704E+03   -0.81218E-02   -0.66901E-02 10883   0.765E-01    0.736E-01
RMM:   3    -0.185952442171E+03    0.18045E-02   -0.31134E-03 11358   0.216E-01    0.305E-01
RMM:   4    -0.185952332481E+03    0.10969E-03   -0.60455E-04 13353   0.571E-02    0.324E-01
RMM:   5    -0.185952466899E+03   -0.13442E-03   -0.33228E-04 11727   0.447E-02    0.383E-01
RMM:   6    -0.185952367731E+03    0.99168E-04   -0.46646E-04 11115   0.528E-02    0.273E-01
RMM:   7    -0.185952051108E+03    0.31662E-03   -0.23126E-04 10451   0.397E-02    0.153E-01
RMM:   8    -0.185951976197E+03    0.74911E-04   -0.10030E-04 10173   0.231E-02    0.732E-02
RMM:   9    -0.185951945280E+03    0.30918E-04   -0.23904E-05  7396   0.143E-02    0.391E-02
RMM:  10    -0.185951938406E+03    0.68743E-05   -0.71908E-06  6246   0.934E-03
  57 F= -.18595194E+03 E0= -.18595297E+03  d E =-.920519E-02  mag=    -0.2043
       N       E                     dE             d eps       ncg     rms          rms(c)
DAV:   1    -0.185930693838E+03    0.21251E-01   -0.12355E+01 11136   0.101E+01    0.688E-01
RMM:   2    -0.185963807449E+03   -0.33114E-01   -0.26815E-01 10884   0.153E+00    0.153E+00
RMM:   3    -0.185955955214E+03    0.78522E-02   -0.12476E-02 11395   0.431E-01    0.594E-01
RMM:   4    -0.185955650723E+03    0.30449E-03   -0.23714E-03 13914   0.113E-01    0.654E-01
RMM:   5    -0.185956201930E+03   -0.55121E-03   -0.13310E-03 12027   0.895E-02    0.779E-01
RMM:   6    -0.185955868127E+03    0.33380E-03   -0.17946E-03 11316   0.104E-01    0.575E-01
RMM:   7    -0.185954489905E+03    0.13782E-02   -0.92630E-04 11165   0.799E-02    0.316E-01
RMM:   8    -0.185954171856E+03    0.31805E-03   -0.40685E-04 11225   0.463E-02    0.155E-01
RMM:   9    -0.185954033660E+03    0.13820E-03   -0.10647E-04  9393   0.268E-02    0.760E-02
RMM:  10    -0.185954006283E+03    0.27377E-04   -0.27342E-05  7563   0.142E-02    0.373E-02
RMM:  11    -0.185954002762E+03    0.35216E-05   -0.12852E-05  6472   0.114E-02
  58 F= -.18595400E+03 E0= -.18595500E+03  d E =-.112695E-01  mag=    -0.1655
       N       E                     dE             d eps       ncg     rms          rms(c)
DAV:   1    -0.185956706918E+03   -0.27006E-02   -0.49538E-01 11600   0.201E+00    0.129E-01
RMM:   2    -0.185958059667E+03   -0.13527E-02   -0.10808E-02 10884   0.306E-01    0.294E-01
RMM:   3    -0.185957733378E+03    0.32629E-03   -0.51168E-04 11282   0.870E-02    0.987E-02
RMM:   4    -0.185957729669E+03    0.37097E-05   -0.97677E-05 10676   0.229E-02
  59 F= -.18595773E+03 E0= -.18595866E+03  d E =-.372691E-02  mag=    -0.1567
       N       E                     dE             d eps       ncg     rms          rms(c)
DAV:   1    -0.185959411680E+03   -0.16783E-02   -0.88389E-01 11168   0.267E+00    0.211E-01
RMM:   2    -0.185962023147E+03   -0.26115E-02   -0.18631E-02 10899   0.404E-01    0.468E-01
RMM:   3    -0.185961210718E+03    0.81243E-03   -0.97202E-04 11031   0.115E-01    0.233E-01
RMM:   4    -0.185961121257E+03    0.89461E-04   -0.25191E-04 12596   0.349E-02    0.186E-01
RMM:   5    -0.185961029995E+03    0.91262E-04   -0.56447E-05  9182   0.185E-02    0.105E-01
RMM:   6    -0.185961120582E+03   -0.90587E-04   -0.19769E-04 10691   0.353E-02    0.170E-01
RMM:   7    -0.185961007651E+03    0.11293E-03   -0.43135E-05  8513   0.180E-02    0.489E-02
RMM:   8    -0.185960998877E+03    0.87746E-05   -0.21887E-05  6914   0.128E-02
  60 F= -.18596100E+03 E0= -.18596190E+03  d E =-.699611E-02  mag=    -0.1337
       N       E                     dE             d eps       ncg     rms          rms(c)
DAV:   1    -0.185956072492E+03    0.49352E-02   -0.35405E+00 11184   0.535E+00    0.337E-01
RMM:   2    -0.185965195530E+03   -0.91230E-02   -0.76020E-02 10884   0.812E-01    0.746E-01
RMM:   3    -0.185963326761E+03    0.18688E-02   -0.35290E-03 11457   0.231E-01    0.271E-01
RMM:   4    -0.185963254647E+03    0.72113E-04   -0.66789E-04 13715   0.583E-02    0.328E-01
RMM:   5    -0.185963409575E+03   -0.15493E-03   -0.30284E-04 11960   0.424E-02    0.396E-01
RMM:   6    -0.185963175595E+03    0.23398E-03   -0.48400E-04 11194   0.517E-02    0.229E-01
RMM:   7    -0.185962967736E+03    0.20786E-03   -0.22695E-04 10590   0.382E-02    0.159E-01
RMM:   8    -0.185962888243E+03    0.79493E-04   -0.92043E-05 10195   0.225E-02    0.651E-02
RMM:   9    -0.185962861810E+03    0.26434E-04   -0.20561E-05  7152   0.139E-02    0.394E-02
RMM:  10    -0.185962855005E+03    0.68045E-05   -0.79966E-06  6211   0.988E-03
  61 F= -.18596286E+03 E0= -.18596372E+03  d E =-.885224E-02  mag=    -0.1067
       N       E                     dE             d eps       ncg     rms          rms(c)
DAV:   1    -0.185966236548E+03   -0.33747E-02   -0.23136E-01 11520   0.136E+00    0.111E-01
RMM:   2    -0.185966795209E+03   -0.55866E-03   -0.52124E-03 10887   0.218E-01    0.180E-01
RMM:   3    -0.185966738367E+03    0.56842E-04   -0.30248E-04 11084   0.638E-02    0.116E-01
RMM:   4    -0.185966685195E+03    0.53172E-04   -0.67629E-05  9583   0.208E-02    0.837E-02
RMM:   5    -0.185966698094E+03   -0.12899E-04   -0.26188E-05  7609   0.143E-02    0.104E-01
RMM:   6    -0.185966674696E+03    0.23397E-04   -0.37812E-05  8269   0.166E-02    0.561E-02
RMM:   7    -0.185966662840E+03    0.11856E-04   -0.21120E-05  7042   0.136E-02    0.354E-02
RMM:   8    -0.185966658343E+03    0.44967E-05   -0.84252E-06  6073   0.101E-02
  62 F= -.18596666E+03 E0= -.18596749E+03  d E =-.380334E-02  mag=    -0.0886
       N       E                     dE             d eps       ncg     rms          rms(c)
DAV:   1    -0.185968605935E+03   -0.19431E-02   -0.73029E-01 10976   0.241E+00    0.190E-01
RMM:   2    -0.185970261212E+03   -0.16553E-02   -0.16236E-02 10887   0.386E-01    0.295E-01
RMM:   3    -0.185970154291E+03    0.10692E-03   -0.91666E-04 11487   0.111E-01    0.200E-01
RMM:   4    -0.185969990247E+03    0.16404E-03   -0.22006E-04 11471   0.363E-02    0.149E-01
RMM:   5    -0.185970021388E+03   -0.31142E-04   -0.77360E-05 10008   0.218E-02    0.186E-01
RMM:   6    -0.185969954323E+03    0.67065E-04   -0.10844E-04 10612   0.244E-02    0.102E-01
RMM:   7    -0.185969930390E+03    0.23933E-04   -0.67220E-05  9423   0.213E-02    0.782E-02
RMM:   8    -0.185969901464E+03    0.28927E-04   -0.24796E-05  7163   0.137E-02    0.317E-02
RMM:   9    -0.185969898187E+03    0.32763E-05   -0.69168E-06  6120   0.101E-02
  63 F= -.18596990E+03 E0= -.18597068E+03  d E =-.704318E-02  mag=    -0.0728
       N       E                     dE             d eps       ncg     rms          rms(c)
DAV:   1    -0.185969949207E+03   -0.47744E-04   -0.42934E-02 11648   0.585E-01    0.466E-02
RMM:   2    -0.185970040974E+03   -0.91767E-04   -0.96932E-04 10895   0.942E-02    0.551E-02
RMM:   3    -0.185970046591E+03   -0.56173E-05   -0.50488E-05  9103   0.271E-02
  64 F= -.18597005E+03 E0= -.18597089E+03  d E =-.719159E-02  mag=    -0.0684
       N       E                     dE             d eps       ncg     rms          rms(c)
DAV:   1    -0.185973488980E+03   -0.34480E-02   -0.21663E-01 10928   0.134E+00    0.143E-01
RMM:   2    -0.185973845453E+03   -0.35647E-03   -0.51086E-03 10880   0.225E-01    0.163E-01
RMM:   3    -0.185973839096E+03    0.63570E-05   -0.33863E-04 11421   0.640E-02    0.140E-01
RMM:   4    -0.185973783978E+03    0.55118E-04   -0.10057E-04 10366   0.247E-02    0.124E-01
RMM:   5    -0.185973790481E+03   -0.65029E-05   -0.75374E-05  9147   0.221E-02
  65 F= -.18597379E+03 E0= -.18597466E+03  d E =-.374389E-02  mag=    -0.0598
       N       E                     dE             d eps       ncg     rms          rms(c)
DAV:   1    -0.185975844182E+03   -0.20602E-02   -0.13017E+00 10880   0.328E+00    0.337E-01
RMM:   2    -0.185978230525E+03   -0.23863E-02   -0.30490E-02 10883   0.553E-01    0.409E-01
RMM:   3    -0.185978185632E+03    0.44893E-04   -0.19777E-03 11890   0.155E-01    0.397E-01
RMM:   4    -0.185977734379E+03    0.45125E-03   -0.46832E-04 12399   0.530E-02    0.264E-01
RMM:   5    -0.185977652843E+03    0.81535E-04   -0.18878E-04 11115   0.356E-02    0.254E-01
RMM:   6    -0.185977438720E+03    0.21412E-03   -0.29831E-04 11116   0.428E-02    0.574E-02
RMM:   7    -0.185977447723E+03   -0.90028E-05   -0.85984E-05  9492   0.235E-02
  66 F= -.18597745E+03 E0= -.18597817E+03  d E =-.740113E-02  mag=    -0.0499
       N       E                     dE             d eps       ncg     rms          rms(c)
DAV:   1    -0.185980159277E+03   -0.27206E-02   -0.25247E-01 10944   0.146E+00    0.163E-01
RMM:   2    -0.185980712897E+03   -0.55362E-03   -0.62241E-03 10884   0.257E-01    0.266E-01
RMM:   3    -0.185980569606E+03    0.14329E-03   -0.43596E-04 11795   0.725E-02    0.161E-01
RMM:   4    -0.185980510986E+03    0.58620E-04   -0.11076E-04 10903   0.261E-02    0.137E-01
RMM:   5    -0.185980496588E+03    0.14398E-04   -0.43462E-05  8405   0.178E-02    0.131E-01
RMM:   6    -0.185980508667E+03   -0.12078E-04   -0.11771E-04 10264   0.266E-02    0.114E-01
RMM:   7    -0.185980465581E+03    0.43085E-04   -0.53537E-05  8506   0.203E-02    0.737E-02
RMM:   8    -0.185980431385E+03    0.34197E-04   -0.25362E-05  7018   0.140E-02    0.221E-02
RMM:   9    -0.185980429784E+03    0.16006E-05   -0.71068E-06  6101   0.105E-02
  67 F= -.18598043E+03 E0= -.18598127E+03  d E =-.298206E-02  mag=    -0.0404
       N       E                     dE             d eps       ncg     rms          rms(c)
DAV:   1    -0.185980671098E+03   -0.23971E-03   -0.50907E-02 11296   0.656E-01    0.731E-02
RMM:   2    -0.185980767494E+03   -0.96396E-04   -0.12487E-03 10884   0.116E-01    0.956E-02
RMM:   3    -0.185980761366E+03    0.61274E-05   -0.86196E-05 10637   0.316E-02
  68 F= -.18598076E+03 E0= -.18598156E+03  d E =-.331364E-02  mag=    -0.0378
       N       E                     dE             d eps       ncg     rms          rms(c)
DAV:   1    -0.185982634271E+03   -0.18668E-02   -0.98055E-02 10960   0.904E-01    0.138E-01
RMM:   2    -0.185983057732E+03   -0.42346E-03   -0.26017E-03 10884   0.170E-01    0.274E-01
RMM:   3    -0.185982801232E+03    0.25650E-03   -0.24005E-04 11631   0.498E-02    0.131E-01
RMM:   4    -0.185982809224E+03   -0.79922E-05   -0.97768E-05 10030   0.256E-02
  69 F= -.18598281E+03 E0= -.18598357E+03  d E =-.204786E-02  mag=    -0.0347
       N       E                     dE             d eps       ncg     rms          rms(c)
DAV:   1    -0.185983057449E+03   -0.25622E-03   -0.78655E-02 10992   0.808E-01    0.139E-01
RMM:   2    -0.185983503149E+03   -0.44570E-03   -0.22026E-03 10906   0.152E-01    0.285E-01
RMM:   3    -0.185983197670E+03    0.30548E-03   -0.21573E-04 10776   0.494E-02    0.155E-01
RMM:   4    -0.185983159039E+03    0.38630E-04   -0.10070E-04 10226   0.251E-02    0.122E-01
RMM:   5    -0.185983115771E+03    0.43269E-04   -0.40904E-05  8345   0.185E-02    0.709E-02
RMM:   6    -0.185983098871E+03    0.16900E-04   -0.63728E-05  9145   0.197E-02    0.421E-02
RMM:   7    -0.185983091553E+03    0.73178E-05   -0.20175E-05  6823   0.135E-02
  70 F= -.18598309E+03 E0= -.18598382E+03  d E =-.233019E-02  mag=    -0.0291
       N       E                     dE             d eps       ncg     rms          rms(c)
DAV:   1    -0.185984118360E+03   -0.10195E-02   -0.90056E-02 10912   0.889E-01    0.922E-02
RMM:   2    -0.185984346434E+03   -0.22807E-03   -0.24391E-03 10885   0.161E-01    0.143E-01
RMM:   3    -0.185984313187E+03    0.33247E-04   -0.15802E-04 11557   0.440E-02    0.931E-02
RMM:   4    -0.185984293075E+03    0.20112E-04   -0.47757E-05  8504   0.178E-02    0.824E-02
RMM:   5    -0.185984287232E+03    0.58435E-05   -0.17386E-05  6575   0.128E-02
  71 F= -.18598429E+03 E0= -.18598494E+03  d E =-.119568E-02  mag=    -0.0259
       N       E                     dE             d eps       ncg     rms          rms(c)
DAV:   1    -0.185984497456E+03   -0.20438E-03   -0.25792E-02 11360   0.475E-01    0.636E-02
RMM:   2    -0.185984584383E+03   -0.86927E-04   -0.72669E-04 10905   0.862E-02    0.104E-01
RMM:   3    -0.185984550839E+03    0.33544E-04   -0.54354E-05  8965   0.268E-02    0.747E-02
RMM:   4    -0.185984537785E+03    0.13054E-04   -0.21490E-05  6996   0.129E-02    0.482E-02
RMM:   5    -0.185984535494E+03    0.22908E-05   -0.13962E-05  6501   0.129E-02
  72 F= -.18598454E+03 E0= -.18598522E+03  d E =-.144394E-02  mag=    -0.0231
       N       E                     dE             d eps       ncg     rms          rms(c)
DAV:   1    -0.185984188596E+03    0.34919E-03   -0.10373E-01 10912   0.954E-01    0.106E-01
RMM:   2    -0.185984472032E+03   -0.28344E-03   -0.28670E-03 10891   0.174E-01    0.168E-01
RMM:   3    -0.185984404725E+03    0.67308E-04   -0.19358E-04 11238   0.487E-02    0.108E-01
RMM:   4    -0.185984384151E+03    0.20573E-04   -0.74932E-05  9252   0.214E-02    0.104E-01
RMM:   5    -0.185984361461E+03    0.22690E-04   -0.29593E-05  7566   0.156E-02    0.692E-02
RMM:   6    -0.185984360998E+03    0.46327E-06   -0.29276E-05  7597   0.157E-02
  73 F= -.18598436E+03 E0= -.18598511E+03  d E =-.126944E-02  mag=    -0.0199
       N       E                     dE             d eps       ncg     rms          rms(c)
DAV:   1    -0.185984514291E+03   -0.15283E-03   -0.44941E-02 10912   0.630E-01    0.767E-02
RMM:   2    -0.185984783280E+03   -0.26899E-03   -0.13824E-03 10891   0.119E-01    0.211E-01
RMM:   3    -0.185984601857E+03    0.18142E-03   -0.11169E-04 10231   0.375E-02    0.617E-02
RMM:   4    -0.185984591442E+03    0.10415E-04   -0.40883E-05  7926   0.167E-02    0.696E-02
RMM:   5    -0.185984579192E+03    0.12250E-04   -0.10946E-05  6014   0.114E-02    0.489E-02
RMM:   6    -0.185984574700E+03    0.44922E-05   -0.68018E-06  5796   0.863E-03
  74 F= -.18598457E+03 E0= -.18598527E+03  d E =-.148315E-02  mag=    -0.0175
       N       E                     dE             d eps       ncg     rms          rms(c)
DAV:   1    -0.185985721497E+03   -0.11423E-02   -0.38262E-02 10944   0.555E-01    0.716E-02
RMM:   2    -0.185985835727E+03   -0.11423E-03   -0.10391E-03 10880   0.104E-01    0.103E-01
RMM:   3    -0.185985802964E+03    0.32762E-04   -0.79268E-05  9763   0.310E-02    0.634E-02
RMM:   4    -0.185985795455E+03    0.75096E-05   -0.26542E-05  7348   0.143E-02
  75 F= -.18598580E+03 E0= -.18598642E+03  d E =-.122075E-02  mag=    -0.0160
       N       E                     dE             d eps       ncg     rms          rms(c)
DAV:   1    -0.185985966559E+03   -0.16359E-03   -0.24317E-02 11008   0.441E-01    0.854E-02
RMM:   2    -0.185986220662E+03   -0.25410E-03   -0.71024E-04 10902   0.846E-02    0.229E-01
RMM:   3    -0.185986018592E+03    0.20207E-03   -0.83587E-05  9394   0.292E-02    0.854E-02
RMM:   4    -0.185986013973E+03    0.46196E-05   -0.37404E-05  7792   0.168E-02
  76 F= -.18598601E+03 E0= -.18598666E+03  d E =-.143927E-02  mag=    -0.0146
       N       E                     dE             d eps       ncg     rms          rms(c)
DAV:   1    -0.185986777358E+03   -0.75877E-03   -0.44121E-02 10896   0.615E-01    0.124E-01
RMM:   2    -0.185987130759E+03   -0.35340E-03   -0.13449E-03 10908   0.119E-01    0.287E-01
RMM:   3    -0.185986853125E+03    0.27763E-03   -0.13216E-04 10450   0.378E-02    0.106E-01
RMM:   4    -0.185986871215E+03   -0.18090E-04   -0.80740E-05  9507   0.233E-02    0.120E-01
RMM:   5    -0.185986826585E+03    0.44630E-04   -0.35652E-05  8026   0.175E-02    0.672E-02
RMM:   6    -0.185986819368E+03    0.72167E-05   -0.45659E-05  8464   0.179E-02
  77 F= -.18598682E+03 E0= -.18598744E+03  d E =-.805395E-03  mag=    -0.0124
       N       E                     dE             d eps       ncg     rms          rms(c)
DAV:   1    -0.185986940080E+03   -0.11349E-03   -0.24959E-02 10960   0.464E-01    0.796E-02
RMM:   2    -0.185987033631E+03   -0.93552E-04   -0.76119E-04 10892   0.889E-02    0.115E-01
RMM:   3    -0.185986987045E+03    0.46586E-04   -0.71828E-05  8925   0.276E-02    0.730E-02
RMM:   4    -0.185987005339E+03   -0.18293E-04   -0.29149E-05  7338   0.148E-02    0.965E-02
RMM:   5    -0.185986969577E+03    0.35762E-04   -0.17627E-05  6721   0.146E-02    0.289E-02
RMM:   6    -0.185986975920E+03   -0.63436E-05   -0.16003E-05  6570   0.118E-02
  78 F= -.18598698E+03 E0= -.18598765E+03  d E =-.961947E-03  mag=    -0.0106
       N       E                     dE             d eps       ncg     rms          rms(c)
DAV:   1    -0.185987717139E+03   -0.74756E-03   -0.42802E-02 10896   0.610E-01    0.108E-01
RMM:   2    -0.185987994386E+03   -0.27725E-03   -0.12793E-03 10884   0.117E-01    0.215E-01
RMM:   3    -0.185987829989E+03    0.16440E-03   -0.15449E-04 10665   0.395E-02    0.128E-01
RMM:   4    -0.185987807510E+03    0.22479E-04   -0.38663E-05  8112   0.166E-02    0.959E-02
RMM:   5    -0.185987783451E+03    0.24060E-04   -0.17355E-05  6810   0.140E-02    0.629E-02
RMM:   6    -0.185987793754E+03   -0.10304E-04   -0.35891E-05  7905   0.161E-02    0.651E-02
RMM:   7    -0.185987771733E+03    0.22022E-04   -0.15652E-05  6770   0.135E-02    0.213E-02
RMM:   8    -0.185987768018E+03    0.37147E-05   -0.48195E-06  5977   0.738E-03
  79 F= -.18598777E+03 E0= -.18598833E+03  d E =-.792098E-03  mag=    -0.0087
       N       E                     dE             d eps       ncg     rms          rms(c)
DAV:   1    -0.185987894309E+03   -0.12258E-03   -0.16200E-02 11232   0.375E-01    0.613E-02
RMM:   2    -0.185987946087E+03   -0.51778E-04   -0.46171E-04 10886   0.709E-02    0.871E-02
RMM:   3    -0.185987937093E+03    0.89937E-05   -0.35864E-05  7912   0.208E-02
  80 F= -.18598794E+03 E0= -.18598846E+03  d E =-.961173E-03  mag=    -0.0081
       N       E                     dE             d eps       ncg     rms          rms(c)
DAV:   1    -0.185988567676E+03   -0.62159E-03   -0.20604E-02 10912   0.413E-01    0.746E-02
RMM:   2    -0.185988919648E+03   -0.35197E-03   -0.69254E-04 10904   0.816E-02    0.286E-01
RMM:   3    -0.185988611106E+03    0.30854E-03   -0.87379E-05  9494   0.303E-02    0.649E-02
RMM:   4    -0.185988597889E+03    0.13217E-04   -0.22151E-05  7102   0.138E-02    0.601E-02
RMM:   5    -0.185988587904E+03    0.99858E-05   -0.12115E-05  6253   0.122E-02
  81 F= -.18598859E+03 E0= -.18598914E+03  d E =-.650811E-03  mag=    -0.0072
       N       E                     dE             d eps       ncg     rms          rms(c)
DAV:   1    -0.185988580029E+03    0.17860E-04   -0.81121E-02 10880   0.821E-01    0.107E-01
RMM:   2    -0.185989000994E+03   -0.42097E-03   -0.24326E-03 10904   0.157E-01    0.229E-01
RMM:   3    -0.185988780754E+03    0.22024E-03   -0.25457E-04 10963   0.518E-02    0.140E-01
RMM:   4    -0.185988729193E+03    0.51561E-04   -0.64773E-05  9503   0.202E-02    0.839E-02
RMM:   5    -0.185988722868E+03    0.63253E-05   -0.17608E-05  6879   0.130E-02
  82 F= -.18598872E+03 E0= -.18598914E+03  d E =-.785775E-03  mag=    -0.0064
       N       E                     dE             d eps       ncg     rms          rms(c)
DAV:   1    -0.185988840533E+03   -0.11134E-03   -0.94106E-03 11264   0.280E-01    0.845E-02
RMM:   2    -0.185989615980E+03   -0.77545E-03   -0.55785E-04 10914   0.702E-02    0.419E-01
RMM:   3    -0.185988875606E+03    0.74037E-03   -0.14818E-04  9792   0.354E-02    0.685E-02
RMM:   4    -0.185988836244E+03    0.39362E-04   -0.23520E-05  7169   0.149E-02    0.332E-02
RMM:   5    -0.185988832750E+03    0.34937E-05   -0.81910E-06  5887   0.996E-03
  83 F= -.18598883E+03 E0= -.18598935E+03  d E =-.895657E-03  mag=    -0.0059
       N       E                     dE             d eps       ncg     rms          rms(c)
DAV:   1    -0.185989181957E+03   -0.34571E-03   -0.14756E-02 10912   0.361E-01    0.375E-02
RMM:   2    -0.185989219810E+03   -0.37852E-04   -0.39560E-04 10880   0.634E-02    0.383E-02
RMM:   3    -0.185989224623E+03   -0.48137E-05   -0.22048E-05  6840   0.193E-02
  84 F= -.18598922E+03 E0= -.18598964E+03  d E =-.391874E-03  mag=    -0.0055
       N       E                     dE             d eps       ncg     rms          rms(c)
DAV:   1    -0.185989427192E+03   -0.20738E-03   -0.13261E-01 10880   0.108E+00    0.129E-01
RMM:   2    -0.185989792971E+03   -0.36578E-03   -0.35632E-03 10890   0.190E-01    0.146E-01
RMM:   3    -0.185989764698E+03    0.28272E-04   -0.25476E-04 10948   0.565E-02    0.140E-01
[...]
RMM:   2    -0.186010625160E+03   -0.13357E-03   -0.50833E-04 10582   0.652E-02    0.153E-01
RMM:   3    -0.186010529217E+03    0.95942E-04   -0.33526E-05  7884   0.214E-02    0.264E-02
RMM:   4    -0.186010528467E+03    0.74993E-06   -0.72316E-06  5774   0.874E-03
 154 F= -.18601053E+03 E0= -.18601012E+03  d E =-.171545E-03  mag=    -0.0000
       N       E                     dE             d eps       ncg     rms          rms(c)
DAV:   1    -0.186010623327E+03   -0.94110E-04   -0.10741E-02 10880   0.282E-01    0.414E-02
RMM:   2    -0.186010806837E+03   -0.18351E-03   -0.32183E-04 10178   0.504E-02    0.186E-01
RMM:   3    -0.186010646554E+03    0.16028E-03   -0.41069E-05  8118   0.209E-02    0.159E-02
RMM:   4    -0.186010641396E+03    0.51574E-05   -0.41289E-06  5656   0.790E-03
 155 F= -.18601064E+03 E0= -.18601019E+03  d E =-.112929E-03  mag=    -0.0000
       N       E                     dE             d eps       ncg     rms          rms(c)
DAV:   1    -0.186010641555E+03    0.49991E-05   -0.95613E-02 10880   0.837E-01    0.688E-02
RMM:   2    -0.186010908281E+03   -0.26673E-03   -0.22249E-03 10884   0.131E-01    0.142E-01
RMM:   3    -0.186010837916E+03    0.70365E-04   -0.11387E-04  9806   0.402E-02    0.513E-02
RMM:   4    -0.186010837147E+03    0.76902E-06   -0.27927E-05  7696   0.134E-02
 156 F= -.18601084E+03 E0= -.18601030E+03  d E =-.308679E-03  mag=    -0.0000
       N       E                     dE             d eps       ncg     rms          rms(c)
DAV:   1    -0.186010940792E+03   -0.10288E-03   -0.10088E-02 11360   0.270E-01    0.906E-02
RMM:   2    -0.186011628964E+03   -0.68817E-03   -0.45080E-04 10642   0.632E-02    0.397E-01
RMM:   3    -0.186010973098E+03    0.65587E-03   -0.14166E-04  9960   0.341E-02    0.828E-02
RMM:   4    -0.186010949376E+03    0.23722E-04   -0.23009E-05  7206   0.142E-02    0.650E-02
RMM:   5    -0.186010936090E+03    0.13286E-04   -0.86481E-06  6074   0.105E-02    0.343E-02
RMM:   6    -0.186010936192E+03   -0.10198E-06   -0.70116E-06  6076   0.885E-03
 157 F= -.18601094E+03 E0= -.18601042E+03  d E =-.990454E-04  mag=    -0.0000
       N       E                     dE             d eps       ncg     rms          rms(c)
DAV:   1    -0.186010964041E+03   -0.27951E-04   -0.27996E-02 10880   0.449E-01    0.398E-02
RMM:   2    -0.186011058368E+03   -0.94327E-04   -0.68446E-04 10480   0.745E-02    0.980E-02
RMM:   3    -0.186011025345E+03    0.33024E-04   -0.38698E-05  8270   0.231E-02    0.359E-02
RMM:   4    -0.186011023483E+03    0.18614E-05   -0.81610E-06  6184   0.887E-03
 158 F= -.18601102E+03 E0= -.18601053E+03  d E =-.186337E-03  mag=    -0.0000
       N       E                     dE             d eps       ncg     rms          rms(c)
DAV:   1    -0.186011090344E+03   -0.64999E-04   -0.72010E-03 10912   0.234E-01    0.475E-02
RMM:   2    -0.186011170142E+03   -0.79797E-04   -0.20898E-04 10190   0.444E-02    0.120E-01
RMM:   3    -0.186011107481E+03    0.62660E-04   -0.33164E-05  7806   0.182E-02    0.545E-02
RMM:   4    -0.186011102435E+03    0.50465E-05   -0.82650E-06  6098   0.982E-03
 159 F= -.18601110E+03 E0= -.18601057E+03  d E =-.789512E-04  mag=    -0.0000
       N       E                     dE             d eps       ncg     rms          rms(c)
DAV:   1    -0.186011118383E+03   -0.10902E-04   -0.70141E-03 10944   0.231E-01    0.341E-02
RMM:   2    -0.186011176584E+03   -0.58201E-04   -0.19273E-04 10124   0.407E-02    0.115E-01
RMM:   3    -0.186011128618E+03    0.47966E-04   -0.13686E-05  6236   0.138E-02    0.286E-02
RMM:   4    -0.186011127674E+03    0.94388E-06   -0.68141E-06  5960   0.848E-03
 160 F= -.18601113E+03 E0= -.18601062E+03  d E =-.104191E-03  mag=    -0.0000
       N       E                     dE             d eps       ncg     rms          rms(c)
DAV:   1    -0.186011205111E+03   -0.76493E-04   -0.76810E-03 10912   0.247E-01    0.416E-02
RMM:   2    -0.186011247014E+03   -0.41903E-04   -0.20209E-04 10434   0.437E-02    0.808E-02
RMM:   3    -0.186011223551E+03    0.23463E-04   -0.21451E-05  6996   0.160E-02    0.547E-02
RMM:   4    -0.186011217568E+03    0.59829E-05   -0.70276E-06  5990   0.927E-03
 161 F= -.18601122E+03 E0= -.18601067E+03  d E =-.898939E-04  mag=    -0.0000
       N       E                     dE             d eps       ncg     rms          rms(c)
DAV:   1    -0.186011241975E+03   -0.18424E-04   -0.14147E-02 10880   0.335E-01    0.558E-02
RMM:   2    -0.186011460917E+03   -0.21894E-03   -0.39333E-04 10862   0.604E-02    0.236E-01
RMM:   3    -0.186011267128E+03    0.19379E-03   -0.42568E-05  8268   0.213E-02    0.435E-02
RMM:   4    -0.186011260088E+03    0.70399E-05   -0.10111E-05  6246   0.971E-03
 162 F= -.18601126E+03 E0= -.18601072E+03  d E =-.132414E-03  mag=    -0.0000
       N       E                     dE             d eps       ncg     rms          rms(c)
DAV:   1    -0.186011312810E+03   -0.45681E-04   -0.11191E-02 10944   0.303E-01    0.624E-02
RMM:   2    -0.186011425161E+03   -0.11235E-03   -0.33682E-04 10746   0.569E-02    0.153E-01
RMM:   3    -0.186011332858E+03    0.92303E-04   -0.43003E-05  7414   0.212E-02    0.451E-02
RMM:   4    -0.186011341177E+03   -0.83194E-05   -0.15767E-05  6522   0.121E-02
 163 F= -.18601134E+03 E0= -.18601074E+03  d E =-.810888E-04  mag=    -0.0000
       N       E                     dE             d eps       ncg     rms          rms(c)
DAV:   1    -0.186011333208E+03   -0.35064E-06   -0.28276E-03 11456   0.152E-01    0.373E-02
RMM:   2    -0.186011417665E+03   -0.84457E-04   -0.10055E-04  9914   0.313E-02    0.147E-01
RMM:   3    -0.186011339081E+03    0.78584E-04   -0.14778E-05  6418   0.131E-02    0.276E-02
RMM:   4    -0.186011337794E+03    0.12873E-05   -0.73716E-06  5884   0.876E-03
 164 F= -.18601134E+03 E0= -.18601080E+03  d E =-.777054E-04  mag=    -0.0000
       N       E                     dE             d eps       ncg     rms          rms(c)
DAV:   1    -0.186011376014E+03   -0.36932E-04   -0.10357E-02 10912   0.286E-01    0.369E-02
RMM:   2    -0.186011417928E+03   -0.41914E-04   -0.27263E-04 10502   0.504E-02    0.675E-02
RMM:   3    -0.186011402279E+03    0.15649E-04   -0.21295E-05  6998   0.164E-02    0.510E-02
RMM:   4    -0.186011394945E+03    0.73341E-05   -0.84350E-06  5936   0.100E-02
 165 F= -.18601139E+03 E0= -.18601081E+03  d E =-.571509E-04  mag=    -0.0000
       N       E                     dE             d eps       ncg     rms          rms(c)
DAV:   1    -0.186011397558E+03    0.47210E-05   -0.15574E-04 11184   0.360E-02    0.346E-02
RMM:   2    -0.186011551850E+03   -0.15429E-03   -0.45249E-05  8326   0.189E-02    0.201E-01
RMM:   3    -0.186011399684E+03    0.15217E-03   -0.21892E-05  6692   0.157E-02    0.186E-02
RMM:   4    -0.186011394146E+03    0.55378E-05   -0.40040E-06  5300   0.670E-03
 166 F= -.18601139E+03 E0= -.18601081E+03  d E =-.563525E-04  mag=    -0.0000
       N       E                     dE             d eps       ncg     rms          rms(c)
DAV:   1    -0.186011449857E+03   -0.50173E-04   -0.78392E-03 10912   0.251E-01    0.304E-02
RMM:   2    -0.186011494777E+03   -0.44920E-04   -0.20120E-04 10350   0.427E-02    0.880E-02
RMM:   3    -0.186011462757E+03    0.32020E-04   -0.14303E-05  6244   0.145E-02    0.228E-02
RMM:   4    -0.186011460655E+03    0.21023E-05   -0.59437E-06  5654   0.847E-03
 167 F= -.18601146E+03 E0= -.18601086E+03  d E =-.665085E-04  mag=    -0.0000
       N       E                     dE             d eps       ncg     rms          rms(c)
DAV:   1    -0.186011477544E+03   -0.14786E-04   -0.32888E-03 10944   0.163E-01    0.324E-02
RMM:   2    -0.186011560228E+03   -0.82685E-04   -0.10119E-04 10028   0.316E-02    0.146E-01
RMM:   3    -0.186011483068E+03    0.77160E-04   -0.14304E-05  6400   0.129E-02    0.230E-02
RMM:   4    -0.186011481507E+03    0.15606E-05   -0.61132E-06  5870   0.806E-03
 168 F= -.18601148E+03 E0= -.18601088E+03  d E =-.873610E-04  mag=    -0.0000
       N       E                     dE             d eps       ncg     rms          rms(c)
DAV:   1    -0.186011428385E+03    0.54683E-04   -0.13145E-02 10880   0.325E-01    0.391E-02
RMM:   2    -0.186011475804E+03   -0.47419E-04   -0.32374E-04 10572   0.545E-02    0.849E-02
RMM:   3    -0.186011449293E+03    0.26511E-04   -0.21259E-05  6938   0.173E-02    0.322E-02
RMM:   4    -0.186011445811E+03    0.34823E-05   -0.78464E-06  6008   0.974E-03
 169 F= -.18601145E+03 E0= -.18601082E+03  d E =-.516643E-04  mag=    -0.0000
       N       E                     dE             d eps       ncg     rms          rms(c)
DAV:   1    -0.186011471909E+03   -0.22617E-04   -0.83861E-03 10880   0.260E-01    0.476E-02
RMM:   2    -0.186011711082E+03   -0.23917E-03   -0.26817E-04 10522   0.495E-02    0.235E-01
RMM:   3    -0.186011491458E+03    0.21962E-03   -0.43376E-05  8132   0.208E-02    0.336E-02
RMM:   4    -0.186011484534E+03    0.69246E-05   -0.70279E-06  5784   0.924E-03
 170 F= -.18601148E+03 E0= -.18601086E+03  d E =-.903874E-04  mag=    -0.0000
       N       E                     dE             d eps       ncg     rms          rms(c)
DAV:   1    -0.186011506870E+03   -0.15412E-04   -0.94006E-03 10880   0.276E-01    0.318E-02
RMM:   2    -0.186011565978E+03   -0.59108E-04   -0.24466E-04 10524   0.475E-02    0.984E-02
RMM:   3    -0.186011525562E+03    0.40416E-04   -0.17602E-05  6488   0.161E-02    0.242E-02
RMM:   4    -0.186011523566E+03    0.19964E-05   -0.45153E-06  5744   0.806E-03
 171 F= -.18601152E+03 E0= -.18601090E+03  d E =-.390323E-04  mag=    -0.0000
       N       E                     dE             d eps       ncg     rms          rms(c)
DAV:   1    -0.186011524362E+03    0.12002E-05   -0.25054E-04 10464   0.456E-02    0.250E-02
RMM:   2    -0.186011581480E+03   -0.57118E-04   -0.19790E-05  6840   0.145E-02    0.120E-01
RMM:   3    -0.186011525178E+03    0.56302E-04   -0.10665E-05  5568   0.127E-02    0.173E-02
RMM:   4    -0.186011523938E+03    0.12401E-05   -0.26717E-06  5260   0.521E-03
 172 F= -.18601152E+03 E0= -.18601088E+03  d E =-.394046E-04  mag=    -0.0000
       N       E                     dE             d eps       ncg     rms          rms(c)
DAV:   1    -0.186011553290E+03   -0.28112E-04   -0.82864E-03 10880   0.254E-01    0.249E-02
RMM:   2    -0.186011585379E+03   -0.32089E-04   -0.20496E-04 10158   0.435E-02    0.628E-02
RMM:   3    -0.186011570194E+03    0.15185E-04   -0.11940E-05  6124   0.137E-02    0.218E-02
RMM:   4    -0.186011569486E+03    0.70760E-06   -0.42163E-06  5748   0.716E-03
 173 F= -.18601157E+03 E0= -.18601092E+03  d E =-.455482E-04  mag=    -0.0000
       N       E                     dE             d eps       ncg     rms          rms(c)
DAV:   1    -0.186011568396E+03    0.17981E-05   -0.18259E-05  7152   0.130E-02    0.172E-02
RMM:   2    -0.186011590746E+03   -0.22350E-04   -0.96144E-06  6062   0.108E-02    0.717E-02
RMM:   3    -0.186011568547E+03    0.22199E-04   -0.55467E-06  5328   0.946E-03    0.128E-02
RMM:   4    -0.186011568366E+03    0.18093E-06   -0.11964E-06  4392   0.348E-03
 174 F= -.18601157E+03 E0= -.18601091E+03  d E =-.444282E-04  mag=    -0.0000
       N       E                     dE             d eps       ncg     rms          rms(c)
DAV:   1    -0.186011588271E+03   -0.19723E-04   -0.13732E-03 10896   0.101E-01    0.125E-02
RMM:   2    -0.186011594619E+03   -0.63488E-05   -0.32864E-05  6738   0.182E-02
 175 F= -.18601159E+03 E0= -.18601092E+03  d E =-.262530E-04  mag=    -0.0000
       N       E                     dE             d eps       ncg     rms          rms(c)
DAV:   1    -0.186011598540E+03   -0.10270E-04   -0.93785E-04 10880   0.854E-02    0.156E-02
RMM:   2    -0.186011603437E+03   -0.48970E-05   -0.23226E-05  6492   0.147E-02
 176 F= -.18601160E+03 E0= -.18601093E+03  d E =-.350709E-04  mag=    -0.0000
       N       E                     dE             d eps       ncg     rms          rms(c)
DAV:   1    -0.186011618057E+03   -0.19516E-04   -0.10052E-03 10880   0.903E-02    0.220E-02
RMM:   2    -0.186011619278E+03   -0.12213E-05   -0.25350E-05  6590   0.165E-02
 177 F= -.18601162E+03 E0= -.18601097E+03  d E =-.158405E-04  mag=    -0.0000
       N       E                     dE             d eps       ncg     rms          rms(c)
DAV:   1    -0.186011627138E+03   -0.90812E-05   -0.99520E-04 10880   0.899E-02    0.309E-02
RMM:   2    -0.186011676542E+03   -0.49404E-04   -0.37652E-05  8134   0.184E-02    0.116E-01
RMM:   3    -0.186011627875E+03    0.48668E-04   -0.98188E-06  5836   0.113E-02    0.232E-02
RMM:   4    -0.186011628727E+03   -0.85248E-06   -0.51285E-06  5630   0.704E-03
 178 F= -.18601163E+03 E0= -.18601095E+03  d E =-.252896E-04  mag=    -0.0000
       N       E                     dE             d eps       ncg     rms          rms(c)
DAV:   1    -0.186011635814E+03   -0.79395E-05   -0.57129E-04 10848   0.690E-02    0.197E-02
RMM:   2    -0.186011665049E+03   -0.29235E-04   -0.27402E-05  7254   0.161E-02    0.824E-02
RMM:   3    -0.186011636382E+03    0.28667E-04   -0.79526E-06  5458   0.115E-02    0.133E-02
RMM:   4    -0.186011635238E+03    0.11439E-05   -0.17914E-06  4854   0.436E-03
 179 F= -.18601164E+03 E0= -.18601096E+03  d E =-.651069E-05  mag=    -0.0000
       N       E                     dE             d eps       ncg     rms          rms(c)
DAV:   1    -0.186011640100E+03   -0.37182E-05   -0.81352E-04 10880   0.816E-02    0.175E-02
RMM:   2    -0.186011654924E+03   -0.14824E-04   -0.22754E-05  6692   0.157E-02    0.562E-02
RMM:   3    -0.186011640920E+03    0.14004E-04   -0.51839E-06  5554   0.962E-03    0.131E-02
RMM:   4    -0.186011641448E+03   -0.52821E-06   -0.14147E-06  4928   0.393E-03
 180 F= -.18601164E+03 E0= -.18601097E+03  d E =-.127209E-04  mag=    -0.0000
       N       E                     dE             d eps       ncg     rms          rms(c)
DAV:   1    -0.186011640623E+03    0.29722E-06   -0.97230E-05 10368   0.280E-02    0.116E-02
RMM:   2    -0.186011646513E+03   -0.58904E-05   -0.47678E-06  5600   0.699E-03
 181 F= -.18601165E+03 E0= -.18601098E+03  d E =-.177859E-04  mag=    -0.0000
       N       E                     dE             d eps       ncg     rms          rms(c)
DAV:   1    -0.186011648849E+03   -0.82262E-05   -0.61864E-04 10544   0.704E-02    0.132E-02
RMM:   2    -0.186011659225E+03   -0.10376E-04   -0.17041E-05  5922   0.134E-02    0.509E-02
RMM:   3    -0.186011650189E+03    0.90357E-05   -0.39540E-06  5266   0.842E-03
 182 F= -.18601165E+03 E0= -.18601097E+03  d E =-.367632E-05  mag=    -0.0000
       N       E                     dE             d eps       ncg     rms          rms(c)
DAV:   1    -0.186011655681E+03    0.35439E-05   -0.22487E-03 10880   0.133E-01    0.183E-02
RMM:   2    -0.186011683282E+03   -0.27601E-04   -0.60341E-05  8724   0.237E-02    0.757E-02
RMM:   3    -0.186011660379E+03    0.22904E-04   -0.57552E-06  5554   0.979E-03    0.180E-02
RMM:   4    -0.186011659912E+03    0.46689E-06   -0.18147E-06  5138   0.457E-03
 183 F= -.18601166E+03 E0= -.18601097E+03  d E =-.133988E-04  mag=    -0.0000
       N       E                     dE             d eps       ncg     rms          rms(c)
DAV:   1    -0.186011672410E+03   -0.12032E-04   -0.87528E-04 10784   0.827E-02    0.159E-02
RMM:   2    -0.186011691423E+03   -0.19013E-04   -0.25401E-05  7042   0.160E-02    0.590E-02
RMM:   3    -0.186011673539E+03    0.17884E-04   -0.61600E-06  5494   0.996E-03    0.120E-02
RMM:   4    -0.186011673272E+03    0.26668E-06   -0.13830E-06  4790   0.394E-03
 184 F= -.18601167E+03 E0= -.18601098E+03  d E =-.133607E-04  mag=    -0.0000
       N       E                     dE             d eps       ncg     rms          rms(c)
DAV:   1    -0.186011677874E+03   -0.43353E-05   -0.14812E-03 10880   0.107E-01    0.159E-02
RMM:   2    -0.186011690527E+03   -0.12653E-04   -0.36613E-05  7464   0.189E-02    0.544E-02
RMM:   3    -0.186011679739E+03    0.10788E-04   -0.52754E-06  5690   0.955E-03    0.126E-02
RMM:   4    -0.186011679604E+03    0.13490E-06   -0.16017E-06  5130   0.409E-03
 185 F= -.18601168E+03 E0= -.18601100E+03  d E =-.196920E-04  mag=    -0.0000
       N       E                     dE             d eps       ncg     rms          rms(c)
DAV:   1    -0.186011687560E+03   -0.78218E-05   -0.44105E-04 11104   0.593E-02    0.147E-02
RMM:   2    -0.186011697741E+03   -0.10180E-04   -0.12670E-05  6122   0.118E-02    0.489E-02
RMM:   3    -0.186011687585E+03    0.10156E-04   -0.40394E-06  5350   0.850E-03    0.991E-03
RMM:   4    -0.186011688038E+03   -0.45315E-06   -0.11575E-06  4656   0.331E-03
 186 F= -.18601169E+03 E0= -.18601099E+03  d E =-.843450E-05  mag=    -0.0000
       N       E                     dE             d eps       ncg     rms          rms(c)
DAV:   1    -0.186011695559E+03   -0.79742E-05   -0.27888E-03 10880   0.149E-01    0.251E-02
RMM:   2    -0.186011713901E+03   -0.18342E-04   -0.71324E-05  8836   0.257E-02    0.625E-02
RMM:   3    -0.186011698970E+03    0.14931E-04   -0.71739E-06  5820   0.106E-02    0.232E-02
RMM:   4    -0.186011698359E+03    0.61127E-06   -0.27939E-06  5606   0.581E-03
 187 F= -.18601170E+03 E0= -.18601102E+03  d E =-.187552E-04  mag=    -0.0000
       N       E                     dE             d eps       ncg     rms          rms(c)
DAV:   1    -0.186011698178E+03    0.79183E-06   -0.28644E-04 10704   0.481E-02    0.205E-02
RMM:   2    -0.186011736757E+03   -0.38578E-04   -0.16316E-05  6372   0.131E-02    0.989E-02
RMM:   3    -0.186011698219E+03    0.38538E-04   -0.81714E-06  5370   0.115E-02    0.128E-02
RMM:   4    -0.186011697709E+03    0.50951E-06   -0.18043E-06  4948   0.416E-03
 188 F= -.18601170E+03 E0= -.18601098E+03  d E =-.181057E-04  mag=    -0.0000
       N       E                     dE             d eps       ncg     rms          rms(c)
DAV:   1    -0.186011704318E+03   -0.60994E-05   -0.73715E-04 10784   0.751E-02    0.151E-02
RMM:   2    -0.186011711058E+03   -0.67392E-05   -0.19418E-05  6216   0.138E-02
 189 F= -.18601171E+03 E0= -.18601096E+03  d E =-.133481E-04  mag=    -0.0000
       N       E                     dE             d eps       ncg     rms          rms(c)
DAV:   1    -0.186011707091E+03   -0.27725E-05   -0.17107E-04 10384   0.393E-02    0.165E-02
RMM:   2    -0.186011717779E+03   -0.10688E-04   -0.10079E-05  5864   0.991E-03    0.491E-02
RMM:   3    -0.186011706862E+03    0.10918E-04   -0.46751E-06  5416   0.879E-03    0.108E-02
RMM:   4    -0.186011706738E+03    0.12395E-06   -0.18617E-06  5006   0.425E-03
 190 F= -.18601171E+03 E0= -.18601101E+03  d E =-.902830E-05  mag=    -0.0000
       N       E                     dE             d eps       ncg     rms          rms(c)
DAV:   1    -0.186011705745E+03    0.11165E-05   -0.62664E-04 10672   0.691E-02    0.174E-02
RMM:   2    -0.186011729882E+03   -0.24137E-04   -0.20492E-05  6336   0.148E-02    0.813E-02
RMM:   3    -0.186011706744E+03    0.23138E-04   -0.65025E-06  5448   0.106E-02    0.109E-02
RMM:   4    -0.186011705741E+03    0.10031E-05   -0.18631E-06  4848   0.424E-03
 191 F= -.18601171E+03 E0= -.18601100E+03  d E =-.803129E-05  mag=    -0.0000
       N       E                     dE             d eps       ncg     rms          rms(c)
DAV:   1    -0.186011706130E+03    0.61349E-06   -0.19243E-04  9664   0.390E-02    0.123E-02
RMM:   2    -0.186011719849E+03   -0.13718E-04   -0.94927E-06  5688   0.104E-02    0.564E-02
RMM:   3    -0.186011706532E+03    0.13316E-04   -0.41093E-06  5258   0.860E-03    0.605E-03
RMM:   4    -0.186011706159E+03    0.37266E-06   -0.51458E-07  4220   0.270E-03
 192 F= -.18601171E+03 E0= -.18601101E+03  d E =-.845001E-05  mag=    -0.0000
       N       E                     dE             d eps       ncg     rms          rms(c)
DAV:   1    -0.186011711912E+03   -0.53797E-05   -0.24580E-04  9968   0.430E-02    0.584E-03
RMM:   2    -0.186011712583E+03   -0.67081E-06   -0.59699E-06  5480   0.797E-03
 193 F= -.18601171E+03 E0= -.18601102E+03  d E =-.642319E-05  mag=    -0.0000
