SrIr2O4 prototype                       
           1
     4.678642    0.000004   -0.000012
     0.000004    4.880260   -0.001994
    -0.000034   -0.005590   15.333001
   Sr   Ir   O 
   4   8  16
Direct configuration=     1
   0.50831693  0.04269785  0.12500000
   0.49168310  0.95730215  0.37500000
   0.99168313  0.54269785  0.12500000
   0.00831690  0.45730215  0.37500000
   0.00000000  0.00000000  0.25000000
   0.00000000  0.00000000  0.00000000
   0.50000000  0.50000000  0.25000000
   0.50000000  0.50000000  0.00000000
   0.00000000  0.00000000  0.75000000
   0.00000000  0.00000000  0.50000000
   0.50000000  0.50000000  0.75000000
   0.50000000  0.50000000  0.50000000
   0.29573488  0.20539931  0.47997263
   0.79573488  0.29460069  0.22997263
   0.79573488  0.29460069  0.02002737
   0.70426512  0.79460073  0.02002737
   0.20426513  0.70539927  0.27002737
   0.70426512  0.79460073  0.22997263
   0.20426513  0.70539927  0.47997263
   0.29573488  0.20539931  0.27002737
   0.29573488  0.20539931  0.97997260
   0.79573488  0.29460069  0.72997260
   0.79573488  0.29460069  0.52002740
   0.70426512  0.79460073  0.52002740
   0.20426513  0.70539927  0.77002740
   0.70426512  0.79460073  0.72997260
   0.20426513  0.70539927  0.97997260
   0.29573488  0.20539931  0.77002740
SrIr2O4 prototype                       
           1
     5.240450    0.000001   -0.000004
     0.000001    5.364147   -0.000716
    -0.000012   -0.002008   15.632373
   Sr   Ir   O 
   4   8  16
Direct configuration=     2
   0.50447107  0.04447185  0.12364262
   0.49552968  0.95552765  0.37635747
   0.99552925  0.54447241  0.12364249
   0.00446996  0.45552773  0.37635750
   0.00000010  0.00000002  0.25000006
   0.01006835 -0.00000636 -0.00382521
   0.49999991  0.50000000  0.25000004
   0.48993292  0.49999252 -0.00382526
  -0.00000113  0.00000136  0.74999980
  -0.01006195  0.00000543  0.50382475
   0.50000153  0.49999953  0.74999978
   0.51006061  0.50000602  0.50382452
   0.29085738  0.20996418  0.48097208
   0.79331430  0.29196319  0.23097883
   0.79085929  0.29003464  0.01902846
   0.70914095  0.79003552  0.01902851
   0.20668573  0.70803686  0.26902121
   0.70668548  0.79196314  0.23097874
   0.20914030  0.70996710  0.48097211
   0.29331452  0.20803692  0.26902131
   0.29180178  0.21005584  0.98362783
   0.78872976  0.28794733  0.73376999
   0.79180416  0.28994235  0.51637182
   0.70819921  0.78994567  0.51637187
   0.21127012  0.71205240  0.76623056
   0.71126389  0.78794294  0.73376952
   0.20819690  0.71005683  0.98362789
   0.28873604  0.21205692  0.76623072
SrIr2O4 prototype                       
           1
     5.212364    0.000002   -0.000005
     0.000002    5.339957   -0.000780
    -0.000013   -0.002187   15.617407
   Sr   Ir   O 
   4   8  16
Direct configuration=     3
   0.50739723  0.04316024  0.12453873
   0.49260297  0.95683964  0.37546130
   0.99260291  0.54316039  0.12453869
   0.00739693  0.45683965  0.37546131
   0.00000002  0.00000001  0.25000002
   0.00240779  0.00000124 -0.00129942
   0.49999998  0.50000000  0.25000001
   0.49759255  0.50000094 -0.00129942
  -0.00000027  0.00000035  0.74999993
  -0.00240626 -0.00000149  0.50129926
   0.50000037  0.49999988  0.74999993
   0.50240590  0.49999868  0.50129917
   0.29456846  0.20658573  0.48031170
   0.79515601  0.29391400  0.23031469
   0.79456892  0.29341396  0.01968849
   0.70543114  0.79341421  0.01968850
   0.20484401  0.70608599  0.26968533
   0.70484392  0.79391401  0.23031466
   0.20543099  0.70658647  0.48031171
   0.29515608  0.20608603  0.26968536
   0.29479429  0.20660756  0.98121383
   0.79405964  0.29286748  0.73126321
   0.79479489  0.29339196  0.51878606
   0.70520594  0.79339285  0.51878607
   0.20594035  0.70713243  0.76873698
   0.70593880  0.79286637  0.73126304
   0.20520537  0.70660780  0.98121384
   0.29406118  0.20713361  0.76873704
SrIr2O4 prototype                       
           1
     5.213620    0.000002   -0.000005
     0.000002    5.341038   -0.000777
    -0.000013   -0.002179   15.618076
   Sr   Ir   O 
   4   8  16
Direct configuration=     4
   0.50726663  0.04321992  0.12449479
   0.49273360  0.95677993  0.37550524
   0.99273352  0.54322009  0.12449474
   0.00726629  0.45677995  0.37550526
   0.00000003  0.00000001  0.25000002
   0.00274970  0.00000098 -0.00142327
   0.49999998  0.50000000  0.25000002
   0.49725069  0.50000065 -0.00142328
  -0.00000031  0.00000040  0.74999992
  -0.00274795 -0.00000126  0.50142310
   0.50000042  0.49999986  0.74999992
   0.50274755  0.49999893  0.50142300
   0.29440283  0.20673937  0.48034407
   0.79507381  0.29382525  0.23034726
   0.79440335  0.29326028  0.01965614
   0.70559672  0.79326057  0.01965615
   0.20492621  0.70617475  0.26965275
   0.70492612  0.79382526  0.23034723
   0.20559655  0.70674021  0.48034408
   0.29507388  0.20617478  0.26965279
   0.29466073  0.20676432  0.98133218
   0.79382175  0.29264362  0.73138614
   0.79466141  0.29323515  0.51866769
   0.70533954  0.79323615  0.51866771
   0.20617823  0.70735628  0.76861406
   0.70617647  0.79264236  0.73138596
   0.20533889  0.70676459  0.98133220
   0.29382351  0.20735762  0.76861412
SrIr2O4 prototype                       
           1
     5.180425   -0.000009    0.000118
    -0.000009    5.388091   -0.001315
     0.000353   -0.003764   15.660032
   Sr   Ir   O 
   4   8  16
Direct configuration=     5
   0.50727250  0.04321725  0.12449675
   0.49272773  0.95678261  0.37550328
   0.99272765  0.54321741  0.12449670
   0.00727216  0.45678263  0.37550330
   0.00000003  0.00000001  0.25000002
   0.00273433  0.00000100 -0.00141773
   0.49999998  0.50000000  0.25000002
   0.49726605  0.50000066 -0.00141773
  -0.00000031  0.00000040  0.74999992
  -0.00273260 -0.00000127  0.50141756
   0.50000042  0.49999986  0.74999992
   0.50273220  0.49999892  0.50141746
   0.29441027  0.20673247  0.48034262
   0.79507751  0.29382923  0.23034580
   0.79441079  0.29326718  0.01965758
   0.70558928  0.79326746  0.01965760
   0.20492251  0.70617076  0.26965421
   0.70492242  0.79382924  0.23034577
   0.20558911  0.70673331  0.48034263
   0.29507758  0.20617080  0.26965425
   0.29466673  0.20675728  0.98132688
   0.79383244  0.29265367  0.73138064
   0.79466741  0.29324219  0.51867299
   0.70533354  0.79324319  0.51867300
   0.20616754  0.70734623  0.76861956
   0.70616579  0.79265242  0.73138046
   0.20533289  0.70675755  0.98132690
   0.29383419  0.20734756  0.76861962
SrIr2O4 prototype                       
           1
     5.174581   -0.000010    0.000139
    -0.000011    5.396374   -0.001409
     0.000418   -0.004043   15.667419
   Sr   Ir   O 
   4   8  16
Direct configuration=     6
   0.50060236  0.04603496  0.12355981
   0.49940061  0.95395251  0.37643247
   0.99939686  0.54605327  0.12356023
   0.00060146  0.45395742  0.37643251
   0.00000117 -0.00000038  0.24999986
   0.00875488 -0.00171931 -0.00345838
   0.50000174  0.49999968  0.24999957
   0.49116064  0.49827176 -0.00346992
  -0.00000767  0.00000259  0.74999889
  -0.00882733  0.00174152  0.50347305
   0.50000921  0.50000334  0.74999971
   0.50882409  0.50174122  0.50347423
   0.29266882  0.20897794  0.48147378
   0.79615732  0.29285626  0.22989561
   0.79262111  0.29108363  0.01852804
   0.70727245  0.79094567  0.01852896
   0.20384454  0.70714291  0.27010459
   0.70385612  0.79286539  0.22989563
   0.20732249  0.70899127  0.48147360
   0.29614563  0.20713391  0.27010401
   0.29407851  0.20959723  0.98198653
   0.78980453  0.28884523  0.73384786
   0.79399392  0.29046577  0.51800825
   0.70602466  0.79048050  0.51800802
   0.21019502  0.71115087  0.76615406
   0.71012885  0.78877664  0.73384743
   0.20609391  0.70942878  0.98198735
   0.28987421  0.21121941  0.76615426
SrIr2O4 prototype                       
           1
     5.210508    0.000045    0.001473
     0.000046    5.426585    0.002946
     0.004462    0.008563   15.609196
   Sr   Ir   O 
   4   8  16
Direct configuration=     7
   0.49942057  0.04652663  0.12339533
   0.50058288  0.95345867  0.37659559
   0.00057850  0.54654812  0.12339582
  -0.00058045  0.45346443  0.37659565
   0.00000138 -0.00000044  0.24999983
   0.00982161 -0.00201963 -0.00381669
   0.50000205  0.49999963  0.24999950
   0.49007893  0.49796994 -0.00383024
  -0.00000898  0.00000297  0.74999871
  -0.00990720  0.00204576  0.50383397
   0.50001077  0.50000394  0.74999967
   0.50990340  0.50204539  0.50383535
   0.29236027  0.20936986  0.48167240
   0.79634864  0.29268644  0.22981655
   0.79230403  0.29070252  0.01832971
   0.70757069  0.79054043  0.01833078
   0.20365355  0.70731258  0.27018367
   0.70366720  0.79269716  0.22981659
   0.20762959  0.70938537  0.48167218
   0.29633485  0.20730201  0.27018299
   0.29397428  0.21009287  0.98210237
   0.78909085  0.28818074  0.73428103
   0.79387460  0.28998122  0.51789152
   0.70614712  0.78999834  0.51789124
   0.21090863  0.71181470  0.76572120
   0.71083098  0.78810041  0.73428055
   0.20622874  0.70989498  0.98210333
   0.28917263  0.21189497  0.76572142
SrIr2O4 prototype                       
           1
     5.225340    0.000068    0.002024
     0.000070    5.439058    0.004744
     0.006131    0.013768   15.585159
   Sr   Ir   O 
   4   8  16
Direct configuration=     8
   0.49407360  0.04830398  0.12249628
   0.50582719  0.95148096  0.37754033
   0.00587427  0.54874286  0.12245457
  -0.00591314  0.45172292  0.37753468
  -0.00003542  0.00000780  0.25001240
   0.00784780 -0.00046721 -0.00321834
   0.49996261  0.50000529  0.25001665
   0.49208781  0.49969425 -0.00342626
   0.00002593 -0.00001135  0.75002879
  -0.00719650  0.00022737  0.50304190
   0.49990766  0.49998496  0.75000584
   0.50808287  0.50025355  0.50337611
   0.29156649  0.21236443  0.48326255
   0.79785903  0.29274640  0.22861272
   0.79154123  0.28768571  0.01675789
   0.70836581  0.78760242  0.01675495
   0.20209836  0.70726238  0.27140383
   0.70208740  0.79274943  0.22861263
   0.20838593  0.71237340  0.48326439
   0.29786795  0.20726039  0.27140317
   0.29147378  0.21283739  0.98189684
   0.78367292  0.28280855  0.73758625
   0.79150116  0.28708070  0.51811442
   0.70844664  0.78706660  0.51811311
   0.21627591  0.71719423  0.76243410
   0.71633669  0.78285318  0.73758661
   0.20835192  0.71301975  0.98189983
   0.28362421  0.21714966  0.76243378
SrIr2O4 prototype                       
           1
     5.222400   -0.000059    0.001441
    -0.000062    5.434119    0.003405
     0.004398    0.009944   15.557188
   Sr   Ir   O 
   4   8  16
Direct configuration=     9
   0.49188160  0.04903456  0.12212371
   0.50797708  0.95066807  0.37793186
   0.00804585  0.54964480  0.12206409
  -0.00809986  0.45100705  0.37792419
  -0.00005051  0.00001118  0.25001761
   0.00703833  0.00016957 -0.00297049
   0.49994643  0.50000759  0.25002375
   0.49291132  0.50040177 -0.00325913
   0.00004023 -0.00001726  0.75004125
  -0.00608484 -0.00051843  0.50271379
   0.49986538  0.49997717  0.75000840
   0.50733660  0.49951835  0.50318607
   0.29124052  0.21359233  0.48392117
   0.79847869  0.29277217  0.22811380
   0.79122900  0.28644867  0.01610692
   0.70869233  0.78639773  0.01610225
   0.20146034  0.70724060  0.27190951
   0.70144007  0.79277206  0.22811378
   0.20869550  0.71359861  0.48392382
   0.29849613  0.20724212  0.27190875
   0.29044862  0.21396437  0.98181144
   0.78145052  0.28059984  0.73895670
   0.79052798  0.28588969  0.51820721
   0.70938939  0.78586274  0.51820531
   0.21847755  0.71940595  0.76107115
   0.71859301  0.78069571  0.73895702
   0.20922249  0.71430281  0.98181508
   0.28135038  0.21931017  0.76107100
SrIr2O4 prototype                       
           1
     5.213580   -0.000439   -0.000310
    -0.000457    5.419302   -0.000611
    -0.000802   -0.001529   15.473276
   Sr   Ir   O 
   4   8  16
Direct configuration=    10
   0.49020552  0.04946717  0.12188077
   0.50958689  0.95020216  0.37819640
   0.00970086  0.55014779  0.12181583
  -0.00975690  0.45055861  0.37818199
  -0.00002896  0.00000418  0.24998266
   0.00678118  0.00049478 -0.00290059
   0.49994833  0.49999106  0.24998206
   0.49343169  0.50086579 -0.00326922
   0.00001097 -0.00002264  0.74996189
  -0.00562904 -0.00072152  0.50275102
   0.49990696  0.49997709  0.74999885
   0.50708305  0.49908052  0.50317727
   0.29074570  0.21440011  0.48443268
   0.79874153  0.29295258  0.22769537
   0.79071802  0.28564589  0.01560334
   0.70914972  0.78561065  0.01559651
   0.20113086  0.70705471  0.27233421
   0.70111282  0.79295269  0.22769596
   0.20919219  0.71434207  0.48443291
   0.29875610  0.20704245  0.27233524
   0.28951810  0.21493224  0.98177310
   0.77955255  0.27871953  0.74009450
   0.78966325  0.28481695  0.51824899
   0.71025826  0.78488250  0.51824651
   0.22030984  0.72127454  0.75994129
   0.72045312  0.77884185  0.74009477
   0.21003587  0.71533873  0.98177432
   0.27942163  0.22114749  0.75994139
SrIr2O4 prototype                       
           1
     5.206650   -0.000549    0.000007
    -0.000572    5.412928   -0.004526
     0.000142   -0.012701   15.499200
   Sr   Ir   O 
   4   8  16
Direct configuration=    11
   0.48517424  0.05076554  0.12115058
   0.51441926  0.94880383  0.37899150
   0.01466847  0.55165773  0.12107004
  -0.01473061  0.44921250  0.37895647
   0.00003568 -0.00001692  0.24987761
   0.00600940  0.00147143 -0.00269047
   0.49995400  0.49994135  0.24985676
   0.49499371  0.50225911 -0.00329938
  -0.00007692 -0.00003896  0.74972336
  -0.00426083 -0.00133123  0.50286290
   0.50003176  0.49997685  0.74997018
   0.50632193  0.49776580  0.50315066
   0.28926098  0.21682669  0.48597010
   0.79953010  0.29349344  0.22643790
   0.78918364  0.28323427  0.01408964
   0.71052210  0.78324624  0.01407641
   0.20014227  0.70649741  0.27361053
   0.70013012  0.79349418  0.22644028
   0.21068366  0.71657559  0.48596316
   0.29953687  0.20644382  0.27361697
   0.28672500  0.21783837  0.98165803
   0.77385643  0.27307576  0.74351333
   0.78706757  0.28159583  0.51837419
   0.71286632  0.78193925  0.51837017
   0.22580880  0.72688316  0.75654632
   0.72603760  0.77327771  0.74351389
   0.21247743  0.71844929  0.98165218
   0.27363115  0.22666194  0.75654670
SrIr2O4 prototype                       
           1
     5.201483   -0.000631    0.000244
    -0.000658    5.408175   -0.007444
     0.000846   -0.021031   15.518529
   Sr   Ir   O 
   4   8  16
Direct configuration=    12
   0.48445372  0.05067166  0.12092983
   0.51519265  0.94896213  0.37920206
   0.01543597  0.55144531  0.12080750
  -0.01537673  0.44938371  0.37913319
  -0.00017207  0.00002560  0.25012480
   0.00588819  0.00136321 -0.00340381
   0.50015765  0.50000993  0.25015428
   0.49452688  0.50171465 -0.00375217
  -0.00009336  0.00001448  0.75015823
  -0.00448293 -0.00130709  0.50311183
   0.50000987  0.49999809  0.75000868
   0.50649429  0.49820409  0.50360807
   0.28829318  0.21699768  0.48632604
   0.79944863  0.29393815  0.22599279
   0.78817134  0.28309099  0.01368416
   0.71158702  0.78320138  0.01367233
   0.20023851  0.70604120  0.27399342
   0.70021619  0.79394959  0.22599968
   0.21179125  0.71659689  0.48631411
   0.29945221  0.20600028  0.27400392
   0.28591922  0.21883302  0.98164130
   0.77215040  0.27133820  0.74446907
   0.78627046  0.28057984  0.51834513
   0.71384116  0.78117036  0.51832981
   0.22750240  0.72859235  0.75552603
   0.72771103  0.77153220  0.74446967
   0.21342681  0.71925098  0.98162522
   0.27194613  0.22840112  0.75552484
SrIr2O4 prototype                       
           1
     5.198451   -0.000487    0.000570
    -0.000508    5.404135   -0.011007
     0.001813   -0.031184   15.557737
   Sr   Ir   O 
   4   8  16
Direct configuration=    13
   0.48391578  0.05060122  0.12076551
   0.51577006  0.94908064  0.37935882
   0.01600904  0.55128633  0.12061202
  -0.01585916  0.44951178  0.37926479
  -0.00032721  0.00005772  0.25030882
   0.00579779  0.00128133 -0.00393484
   0.50030967  0.50006159  0.25037576
   0.49417838  0.50130750 -0.00408932
  -0.00010570  0.00005504  0.75048196
  -0.00464878 -0.00128869  0.50329713
   0.49999353  0.50001401  0.75003734
   0.50662293  0.49853199  0.50394865
   0.28757055  0.21712586  0.48659104
   0.79938787  0.29426946  0.22566154
   0.78741557  0.28298340  0.01338232
   0.71238218  0.78316728  0.01337151
   0.20031031  0.70570122  0.27427835
   0.70028053  0.79428888  0.22567179
   0.21261817  0.71661334  0.48657534
   0.29938895  0.20566976  0.27429189
   0.28531762  0.21957550  0.98162904
   0.77087647  0.27004252  0.74518023
   0.78567530  0.27982134  0.51832331
   0.71456901  0.78059633  0.51829960
   0.22876706  0.72986675  0.75476683
   0.72896032  0.77023063  0.74518078
   0.21413567  0.71984943  0.98160529
   0.27068821  0.22969786  0.75476453
SrIr2O4 prototype                       
           1
     5.196545   -0.000396    0.000775
    -0.000414    5.401595   -0.013246
     0.002422   -0.037565   15.582379
   Sr   Ir   O 
   4   8  16
Direct configuration=    14
   0.48384302  0.05032248  0.12065871
   0.51590636  0.94942754  0.37961872
   0.01614136  0.55085316  0.12046721
  -0.01588091  0.44984262  0.37946852
   0.00012443  0.00015050  0.25003015
   0.00568541  0.00103998 -0.00440259
   0.49981145  0.50015861  0.25002097
   0.49423009  0.50073226 -0.00445573
   0.00003941  0.00007953  0.75010605
  -0.00543845 -0.00090214  0.50376197
   0.49994662  0.50001028  0.75006842
   0.50667310  0.49886071  0.50421109
   0.28663577  0.21703174  0.48691000
   0.79924342  0.29468801  0.22536213
   0.78641363  0.28311972  0.01317098
   0.71340917  0.78336127  0.01316060
   0.20048024  0.70525520  0.27468694
   0.70044299  0.79472151  0.22537670
   0.21371718  0.71636400  0.48688963
   0.29924527  0.20524245  0.27470556
   0.28460389  0.22031428  0.98168618
   0.76952725  0.26865758  0.74599059
   0.78497962  0.27905798  0.51837442
   0.71544916  0.78006333  0.51834170
   0.23011645  0.73121666  0.75407494
   0.73027658  0.76883514  0.74599106
   0.21499587  0.72039455  0.98165372
   0.26938172  0.23110104  0.75407137
SrIr2O4 prototype                       
           1
     5.195768   -0.000359    0.000858
    -0.000376    5.400560   -0.014159
     0.002670   -0.040167   15.592426
   Sr   Ir   O 
   4   8  16
Direct configuration=    15
   0.48379728  0.05014703  0.12059171
   0.51599204  0.94964603  0.37978170
   0.01622460  0.55058053  0.12037636
  -0.01589462  0.45005095  0.37959629
   0.00040848  0.00020852  0.24985546
   0.00561479  0.00088764 -0.00469586
   0.49949817  0.50021923  0.24979856
   0.49426267  0.50037003 -0.00468553
   0.00013070  0.00009450  0.74987039
  -0.00593511 -0.00065846  0.50405345
   0.49991712  0.50000797  0.75008791
   0.50670462  0.49906777  0.50437566
   0.28604788  0.21697293  0.48710995
   0.79915260  0.29495092  0.22517449
   0.78578358  0.28320523  0.01303852
   0.71405502  0.78348302  0.01302840
   0.20058706  0.70497515  0.27494302
   0.70054518  0.79499326  0.22519176
   0.21440827  0.71620753  0.48708661
   0.29915488  0.20497417  0.27496483
   0.28415504  0.22077903  0.98172212
   0.76867871  0.26778746  0.74649844
   0.78454215  0.27857793  0.51840635
   0.71600267  0.77972813  0.51836801
   0.23096508  0.73206487  0.75364137
   0.73110426  0.76795836  0.74649882
   0.21553681  0.72073746  0.98168414
   0.26856018  0.23198281  0.75363705
SrIr2O4 prototype                       
           1
     5.194738   -0.000362    0.000967
    -0.000378    5.398161   -0.016832
     0.002990   -0.047779   15.625474
   Sr   Ir   O 
   4   8  16
Direct configuration=    16
   0.48377863  0.05007543  0.12056443
   0.51602697  0.94973523  0.37984805
   0.01625856  0.55046928  0.12033936
  -0.01590022  0.45013599  0.37964831
   0.00052434  0.00023210  0.24978435
   0.00558601  0.00082536 -0.00481524
   0.49937041  0.50024385  0.24970803
   0.49427597  0.50022216 -0.00477909
   0.00016795  0.00010049  0.74977447
  -0.00613769 -0.00055891  0.50417212
   0.49990509  0.50000704  0.75009584
   0.50671746  0.49915231  0.50444266
   0.28580810  0.21694904  0.48719135
   0.79911557  0.29505807  0.22509813
   0.78552661  0.28324005  0.01298461
   0.71431845  0.78353262  0.01297459
   0.20063062  0.70486104  0.27504725
   0.70058687  0.79510402  0.22511649
   0.21469013  0.71614379  0.48716679
   0.29911800  0.20486487  0.27507036
   0.28397196  0.22096862  0.98173678
   0.76833260  0.26743279  0.74670512
   0.78436372  0.27838213  0.51841933
   0.71622842  0.77959141  0.51837869
   0.23131122  0.73241065  0.75346492
   0.73144182  0.76760095  0.74670545
   0.21575743  0.72087734  0.98169654
   0.26822512  0.23234228  0.75346030
SrIr2O4 prototype                       
           1
     5.193746   -0.000365    0.001072
    -0.000381    5.395851   -0.019405
     0.003298   -0.055108   15.657298
   Sr   Ir   O 
   4   8  16
Direct configuration=    17
   0.48389953  0.04974143  0.12045416
   0.51589695  0.95009991  0.38005642
   0.01618226  0.55007468  0.12018736
  -0.01571166  0.45049900  0.37979881
   0.00038719  0.00014981  0.24982208
   0.00511473  0.00055509 -0.00530023
   0.49952624  0.50014536  0.24977113
   0.49477139  0.49993481 -0.00517682
   0.00015063  0.00008486  0.74974391
  -0.00633619 -0.00024150  0.50449477
   0.49989603  0.50001517  0.74999186
   0.50653145  0.49929376  0.50464731
   0.28503282  0.21682146  0.48740287
   0.79899656  0.29541177  0.22482188
   0.78470762  0.28342793  0.01280735
   0.71513153  0.78374937  0.01279622
   0.20073934  0.70455076  0.27535948
   0.70071392  0.79547131  0.22484431
   0.21555562  0.71592874  0.48737502
   0.29902131  0.20456899  0.27538810
   0.28333495  0.22150765  0.98174707
   0.76726308  0.26635953  0.74730146
   0.78373306  0.27788381  0.51844540
   0.71693901  0.77919995  0.51839784
   0.23236527  0.73349338  0.75291236
   0.73247054  0.76652020  0.74730105
   0.21648667  0.72127798  0.98170180
   0.26720026  0.23347478  0.75290704
SrIr2O4 prototype                       
           1
     5.194069   -0.000364    0.001038
    -0.000380    5.396602   -0.018569
     0.003198   -0.052725   15.646951
   Sr   Ir   O 
   4   8  16
Direct configuration=    18
   0.48401597  0.04941952  0.12034815
   0.51577171  0.95045151  0.38025671
   0.01610878  0.54969433  0.12004124
  -0.01553006  0.45084892  0.37994348
   0.00025510  0.00007058  0.24985833
   0.00466085  0.00029408 -0.00576630
   0.49967631  0.50005056  0.24983173
   0.49524857  0.49965746 -0.00555906
   0.00013395  0.00006976  0.74971455
  -0.00652739  0.00006473  0.50480485
   0.49988732  0.50002286  0.74989194
   0.50635229  0.49943030  0.50484399
   0.28428610  0.21669884  0.48760610
   0.79888195  0.29575214  0.22455649
   0.78391884  0.28360869  0.01263706
   0.71591464  0.78395794  0.01262486
   0.20084404  0.70425226  0.27565945
   0.70083631  0.79582478  0.22458283
   0.21638919  0.71572185  0.48757506
   0.29892817  0.20428438  0.27569337
   0.28272143  0.22202696  0.98175705
   0.76623296  0.26532638  0.74787431
   0.78312566  0.27740377  0.51847038
   0.71762341  0.77882285  0.51841616
   0.23338049  0.73453571  0.75238158
   0.73346129  0.76547984  0.74787318
   0.21718903  0.72166396  0.98170692
   0.26621321  0.23456506  0.75237561
SrIr2O4 prototype                       
           1
     5.195425   -0.000424    0.001244
    -0.000443    5.397204   -0.018318
     0.003821   -0.052009   15.645385
   Sr   Ir   O 
   4   8  16
Direct configuration=    19
   0.48397810  0.04952427  0.12038256
   0.51581244  0.95033706  0.38019170
   0.01613268  0.54981811  0.12008867
  -0.01558911  0.45073504  0.37989653
   0.00029806  0.00009634  0.24984657
   0.00480843  0.00037918 -0.00561507
   0.49962751  0.50008136  0.24981207
   0.49509339  0.49974784 -0.00543502
   0.00013938  0.00007468  0.74972408
  -0.00646521 -0.00003501  0.50470423
   0.49989015  0.50002040  0.74992436
   0.50641055  0.49938580  0.50478017
   0.28452893  0.21673864  0.48754016
   0.79891921  0.29564155  0.22464258
   0.78417534  0.28354997  0.01269230
   0.71565998  0.78389018  0.01268045
   0.20081000  0.70434922  0.27556214
   0.70079650  0.79570993  0.22466766
   0.21611813  0.71578906  0.48751017
   0.29895846  0.20437682  0.27559434
   0.28292094  0.22185804  0.98175378
   0.76656795  0.26566218  0.74768849
   0.78332318  0.27755990  0.51846230
   0.71740085  0.77894550  0.51841024
   0.23305034  0.73419691  0.75255375
   0.73313912  0.76581798  0.74768760
   0.21696064  0.72153841  0.98170524
   0.26653417  0.23421066  0.75254798
SrIr2O4 prototype                       
           1
     5.196086   -0.000453    0.001344
    -0.000474    5.397498   -0.018195
     0.004124   -0.051660   15.644622
   Sr   Ir   O 
   4   8  16
Direct configuration=    20
   0.48418337  0.04936657  0.12030776
   0.51550237  0.95052371  0.38021940
   0.01589513  0.54967982  0.11997479
  -0.01531977  0.45090004  0.37992060
  -0.00002297  0.00001986  0.25001585
   0.00502713  0.00041347 -0.00560403
   0.49999914  0.50000784  0.25002897
   0.49501613  0.49985319 -0.00548231
   0.00002283  0.00004116  0.75003409
  -0.00604355 -0.00011824  0.50472828
   0.49994044  0.50001876  0.74997160
   0.50603653  0.49930127  0.50487219
   0.28438727  0.21667912  0.48752296
   0.79894207  0.29567967  0.22452377
   0.78406247  0.28360125  0.01262102
   0.71576270  0.78392597  0.01260814
   0.20078674  0.70434714  0.27559661
   0.70078616  0.79575105  0.22455049
   0.21621694  0.71578514  0.48749346
   0.29899015  0.20437258  0.27563163
   0.28271745  0.22188881  0.98169364
   0.76635816  0.26546378  0.74774067
   0.78310215  0.27758743  0.51843847
   0.71754376  0.77886793  0.51838422
   0.23325824  0.73441308  0.75241388
   0.73334763  0.76562124  0.74773967
   0.21716183  0.72156987  0.98164635
   0.26633963  0.23443851  0.75240786
SrIr2O4 prototype                       
           1
     5.198444   -0.000521    0.001510
    -0.000545    5.398700   -0.017275
     0.004627   -0.049032   15.635822
   Sr   Ir   O 
   4   8  16
Direct configuration=    21
   0.48428343  0.04928970  0.12027129
   0.51535124  0.95061469  0.38023290
   0.01577935  0.54961241  0.11991926
  -0.01518849  0.45098048  0.37993234
  -0.00017945 -0.00001744  0.25009838
   0.00513373  0.00043019 -0.00559866
   0.50018025  0.49997199  0.25013473
   0.49497848  0.49990454 -0.00550536
  -0.00003399  0.00002480  0.75018525
  -0.00583803 -0.00015882  0.50474000
   0.49996495  0.50001795  0.74999464
   0.50585422  0.49926006  0.50491707
   0.28431822  0.21665011  0.48751458
   0.79895322  0.29569827  0.22446583
   0.78400746  0.28362625  0.01258626
   0.71581277  0.78394342  0.01257288
   0.20077540  0.70434612  0.27561342
   0.70078112  0.79577110  0.22449336
   0.21626511  0.71578323  0.48748531
   0.29900560  0.20437051  0.27564981
   0.28261827  0.22190381  0.98166431
   0.76625590  0.26536706  0.74776611
   0.78299443  0.27760085  0.51842685
   0.71761342  0.77883011  0.51837153
   0.23335958  0.73451847  0.75234568
   0.73344925  0.76552533  0.74776505
   0.21725989  0.72158521  0.98161764
   0.26624481  0.23454959  0.75233954
SrIr2O4 prototype                       
           1
     5.202029   -0.000624    0.001761
    -0.000654    5.400527   -0.015875
     0.005390   -0.045038   15.622442
   Sr   Ir   O 
   4   8  16
Direct configuration=    22
   0.48468347  0.04909283  0.12018094
   0.51482631  0.95087241  0.38032870
   0.01532889  0.54939064  0.11979208
  -0.01477230  0.45121237  0.38001843
  -0.00023117 -0.00004432  0.25009207
   0.00553268  0.00052973 -0.00542606
   0.50023078  0.49995346  0.25011610
   0.49479057  0.49998275 -0.00544468
  -0.00010099 -0.00000536  0.75016989
  -0.00504351 -0.00049867  0.50481171
   0.50000317  0.50001882  0.75004620
   0.50529784  0.49921864  0.50506037
   0.28418266  0.21657318  0.48750506
   0.79901406  0.29570026  0.22434659
   0.78392756  0.28368107  0.01253493
   0.71587292  0.78397250  0.01251954
   0.20072561  0.70438164  0.27568177
   0.70073487  0.79577535  0.22437700
   0.21630676  0.71581419  0.48747793
   0.29906005  0.20439832  0.27572284
   0.28235865  0.22190426  0.98160647
   0.76603344  0.26516919  0.74782904
   0.78270104  0.27770168  0.51843034
   0.71775731  0.77874381  0.51837211
   0.23357909  0.73474554  0.75223335
   0.73366488  0.76532824  0.74782801
   0.21750061  0.72159823  0.98156200
   0.26603487  0.23478923  0.75222729
SrIr2O4 prototype                       
           1
     5.203110   -0.000655    0.001836
    -0.000686    5.401078   -0.015453
     0.005620   -0.043833   15.618409
   Sr   Ir   O 
   4   8  16
Direct configuration=    23
   0.48529146  0.04879365  0.12004351
   0.51402853  0.95126410  0.38047442
   0.01464430  0.54905361  0.11959861
  -0.01413978  0.45156482  0.38014938
  -0.00030977 -0.00008519  0.25008247
   0.00613899  0.00068093 -0.00516351
   0.50030757  0.49992531  0.25008777
   0.49450499  0.50010159 -0.00535236
  -0.00020281 -0.00005120  0.75014652
  -0.00383603 -0.00101533  0.50492082
   0.50006125  0.50002012  0.75012465
   0.50445224  0.49915557  0.50527839
   0.28397664  0.21645625  0.48749059
   0.79910654  0.29570338  0.22416518
   0.78380614  0.28376443  0.01245684
   0.71596435  0.78401675  0.01243840
   0.20064992  0.70443557  0.27578573
   0.70066459  0.79578190  0.22419999
   0.21637007  0.71586127  0.48746669
   0.29914280  0.20444055  0.27583394
   0.28196409  0.22190498  0.98151847
   0.76569534  0.26486834  0.74792478
   0.78225515  0.27785494  0.51843564
   0.71797600  0.77861261  0.51837300
   0.23391271  0.73509080  0.75206243
   0.73399257  0.76502859  0.74792381
   0.21786646  0.72161805  0.98147734
   0.26571583  0.23515360  0.75205650
SrIr2O4 prototype                       
           1
     5.204477   -0.000669    0.001661
    -0.000701    5.401684   -0.014686
     0.005100   -0.041658   15.605543
   Sr   Ir   O 
   4   8  16
Direct configuration=    24
   0.48547459  0.04870353  0.12000205
   0.51378822  0.95138209  0.38051837
   0.01443810  0.54895209  0.11954026