   32   32  901    2
  0.1197836E+02  0.1392900E-08  0.2845900E-09  0.9678000E-09  0.5000000E-15
  1.000000000000000E-004
  CAR 
 unknown system                          
    230     12    144
 
  0.2500000E+00  0.8333333E-01  0.1250000E+00  0.8333333E-01
    1      -30.642617    -30.642617   1.000000   1.000000
    2      -30.626049    -30.626049   1.000000   1.000000
    3      -16.384264    -16.384264   1.000000   1.000000
    4      -16.105088    -16.105088   1.000000   1.000000
    5      -15.832259    -15.832259   1.000000   1.000000
    6      -15.703120    -15.703120   1.000000   1.000000
    7      -15.660365    -15.660365   1.000000   1.000000
    8      -15.560110    -15.560110   1.000000   1.000000
    9      -15.473242    -15.473242   1.000000   1.000000
   10      -15.381237    -15.381237   1.000000   1.000000
   11      -15.085974    -15.085974   1.000000   1.000000
   12      -15.041948    -15.041948   1.000000   1.000000
   13      -14.931257    -14.931257   1.000000   1.000000
   14      -14.828853    -14.828853   1.000000   1.000000
   15      -14.697615    -14.697615   1.000000   1.000000
   16      -14.583654    -14.583654   1.000000   1.000000
   17      -14.408634    -14.408634   1.000000   1.000000
   18      -14.389986    -14.389986   1.000000   1.000000
   19      -14.327843    -14.327843   1.000000   1.000000
   20      -14.232229    -14.232229   1.000000   1.000000
   21      -14.175997    -14.175997   1.000000   1.000000
   22      -14.102432    -14.102432   1.000000   1.000000
   23      -12.472337    -12.472337   1.000000   1.000000
   24      -12.328292    -12.328292   1.000000   1.000000
   25      -12.148109    -12.148109   1.000000   1.000000
   26      -12.140651    -12.140651   1.000000   1.000000
   27      -12.099140    -12.099140   1.000000   1.000000
   28      -12.058576    -12.058576   1.000000   1.000000
   29       -4.208564     -4.208564   1.000000   1.000000
   30       -4.157457     -4.157457   1.000000   1.000000
   31       -4.036590     -4.036590   1.000000   1.000000
   32       -3.890221     -3.890221   1.000000   1.000000
   33       -3.802595     -3.802595   1.000000   1.000000
   34       -3.606039     -3.606039   1.000000   1.000000
   35       -3.508878     -3.508878   1.000000   1.000000
   36       -3.366296     -3.366296   1.000000   1.000000
   37       -3.183058     -3.183058   1.000000   1.000000
   38       -3.178731     -3.178731   1.000000   1.000000
   39       -2.973697     -2.973697   1.000000   1.000000
   40       -2.909116     -2.909116   1.000000   1.000000
   41       -2.809950     -2.809950   1.000000   1.000000
   42       -2.778516     -2.778516   1.000000   1.000000
   43       -2.686654     -2.686654   1.000000   1.000000
   44       -2.622142     -2.622142   1.000000   1.000000
   45       -2.585413     -2.585413   1.000000   1.000000
   46       -2.565209     -2.565209   1.000000   1.000000
   47       -2.545838     -2.545838   1.000000   1.000000
   48       -2.414390     -2.414390   1.000000   1.000000
   49       -2.358903     -2.358903   1.000000   1.000000
   50       -2.170550     -2.170550   1.000000   1.000000
   51       -2.104020     -2.104020   1.000000   1.000000
   52       -2.030086     -2.030086   1.000000   1.000000
   53       -1.927345     -1.927345   1.000000   1.000000
   54       -1.714943     -1.714943   1.000000   1.000000
   55       -1.407328     -1.407328   1.000000   1.000000
   56       -1.353226     -1.353226   1.000000   1.000000
   57       -1.262721     -1.262721   1.000000   1.000000
   58       -1.211279     -1.211279   1.000000   1.000000
   59       -0.932456     -0.932456   1.000000   1.000000
   60       -0.870543     -0.870543   1.000000   1.000000
   61       -0.736135     -0.736135   1.000000   1.000000
   62       -0.709982     -0.709982   1.000000   1.000000
   63       -0.642402     -0.642402   1.000000   1.000000
   64       -0.506543     -0.506543   1.000000   1.000000
   65       -0.425353     -0.425353   1.000000   1.000000
   66       -0.357686     -0.357686   1.000000   1.000000
   67       -0.257794     -0.257794   1.000000   1.000000
   68       -0.234195     -0.234195   1.000000   1.000000
   69       -0.121010     -0.121010   1.000000   1.000000
   70       -0.077168     -0.077168   1.000000   1.000000
   71        0.002545      0.002545   1.000000   1.000000
   72        0.104848      0.104848   1.000000   1.000000
   73        0.120182      0.120182   1.000000   1.000000
   74        0.345308      0.345308   1.000000   1.000000
   75        0.451320      0.451320   1.000000   1.000000
   76        0.576642      0.576642   1.000000   1.000000
   77        0.670412      0.670412   1.000000   1.000000
   78        0.743309      0.743309   1.000000   1.000000
   79        0.799153      0.799153   1.000000   1.000000
   80        0.862965      0.862965   1.000000   1.000000
   81        0.944675      0.944675   1.000000   1.000000
   82        1.005144      1.005144   1.000000   1.000000
   83        1.089032      1.089032   1.000000   1.000000
   84        1.168336      1.168336   1.000000   1.000000
   85        1.184593      1.184593   1.000000   1.000000
   86        1.346291      1.346291   1.000000   1.000000
   87        1.456147      1.456147   1.000000   1.000000
   88        1.586687      1.586687   1.000000   1.000000
   89        2.439772      2.439772   1.000000   1.000000
   90        2.683160      2.683160   1.000000   1.000000
   91        2.728762      2.728762   1.000000   1.000000
   92        2.751554      2.751554   1.000000   1.000000
   93        2.848866      2.848866   1.000000   1.000000
   94        2.937644      2.937644   1.000000   1.000000
   95        2.957103      2.957103   1.000000   1.000000
   96        3.003898      3.003898   1.000000   1.000000
   97        3.085962      3.085962   1.000000   1.000000
   98        3.143194      3.143194   1.000000   1.000000
   99        3.263567      3.263567   1.000000   1.000000
  100        3.300902      3.300902   1.000000   1.000000
  101        3.363536      3.363536   1.000000   1.000000
  102        3.376502      3.376502   1.000000   1.000000
  103        3.437516      3.437516   1.000000   1.000000
  104        3.480444      3.480444   1.000000   1.000000
  105        3.559361      3.559361   1.000000   1.000000
  106        3.645908      3.645908   1.000000   1.000000
  107        3.790312      3.790312   1.000000   1.000000
  108        3.884744      3.884744   1.000000   1.000000
  109        3.989695      3.989695   1.000000   1.000000
  110        4.057457      4.057457   0.999997   0.999997
  111        4.372287      4.372287   0.996200   0.996200
  112        4.418991      4.418991   0.995066   0.995066
  113        4.431341      4.431341   0.995169   0.995169
  114        4.686505      4.686505   1.017836   1.017836
  115        4.801503      4.801503   0.618961   0.618961
  116        4.880509      4.880509   0.219852   0.219852
  117        5.098801      5.098801  -0.021399  -0.021399
  118        5.185201      5.185201   0.002974   0.002974
  119        6.188656      6.188656   0.000000   0.000000
  120        6.568208      6.568208   0.000000   0.000000
  121        6.680834      6.680834   0.000000   0.000000
  122        6.830646      6.830646   0.000000   0.000000
  123        6.993541      6.993541   0.000000   0.000000
  124        7.189439      7.189439   0.000000   0.000000
  125        7.238117      7.238117   0.000000   0.000000
  126        7.298500      7.298500   0.000000   0.000000
  127        7.345098      7.345098   0.000000   0.000000
  128        7.388158      7.388158   0.000000   0.000000
  129        7.549016      7.549016   0.000000   0.000000
  130        7.585880      7.585880   0.000000   0.000000
  131        7.598449      7.598449   0.000000   0.000000
  132        7.700893      7.700893   0.000000   0.000000
  133        7.790794      7.790794   0.000000   0.000000
  134        7.861452      7.861452   0.000000   0.000000
  135        7.912736      7.912736   0.000000   0.000000
  136        8.242095      8.242095   0.000000   0.000000
  137        8.313323      8.313323   0.000000   0.000000
  138        8.401074      8.401074   0.000000   0.000000
  139        8.409559      8.409559   0.000000   0.000000
  140        8.606869      8.606869   0.000000   0.000000
  141        8.768246      8.768246   0.000000   0.000000
  142        9.032375      9.032375   0.000000   0.000000
  143        9.303362      9.303362   0.000000   0.000000
  144       10.110123     10.110123   0.000000   0.000000
 
 -0.2500000E+00  0.8333333E-01  0.1250000E+00  0.8333333E-01
    1      -30.642620    -30.642620   1.000000   1.000000
    2      -30.626050    -30.626050   1.000000   1.000000
    3      -16.384121    -16.384121   1.000000   1.000000
    4      -16.102611    -16.102611   1.000000   1.000000
    5      -15.852925    -15.852925   1.000000   1.000000
    6      -15.701269    -15.701269   1.000000   1.000000
    7      -15.592196    -15.592196   1.000000   1.000000
    8      -15.584268    -15.584268   1.000000   1.000000
    9      -15.513643    -15.513643   1.000000   1.000000
   10      -15.371896    -15.371896   1.000000   1.000000
   11      -15.098453    -15.098453   1.000000   1.000000
   12      -15.023651    -15.023651   1.000000   1.000000
   13      -14.934658    -14.934658   1.000000   1.000000
   14      -14.832804    -14.832804   1.000000   1.000000
   15      -14.657474    -14.657474   1.000000   1.000000
   16      -14.625067    -14.625067   1.000000   1.000000
   17      -14.432733    -14.432733   1.000000   1.000000
   18      -14.368283    -14.368283   1.000000   1.000000
   19      -14.314819    -14.314819   1.000000   1.000000
   20      -14.234638    -14.234638   1.000000   1.000000
   21      -14.182460    -14.182460   1.000000   1.000000
   22      -14.100294    -14.100294   1.000000   1.000000
   23      -12.472354    -12.472354   1.000000   1.000000
   24      -12.328329    -12.328329   1.000000   1.000000
   25      -12.148132    -12.148132   1.000000   1.000000
   26      -12.140666    -12.140666   1.000000   1.000000
   27      -12.099265    -12.099265   1.000000   1.000000
   28      -12.058511    -12.058511   1.000000   1.000000
   29       -4.209822     -4.209822   1.000000   1.000000
   30       -4.152155     -4.152155   1.000000   1.000000
   31       -4.031703     -4.031703   1.000000   1.000000
   32       -3.907963     -3.907963   1.000000   1.000000
   33       -3.800660     -3.800660   1.000000   1.000000
   34       -3.589726     -3.589726   1.000000   1.000000
   35       -3.468746     -3.468746   1.000000   1.000000
   36       -3.437512     -3.437512   1.000000   1.000000
   37       -3.182991     -3.182991   1.000000   1.000000
   38       -3.172137     -3.172137   1.000000   1.000000
   39       -2.964553     -2.964553   1.000000   1.000000
   40       -2.876138     -2.876138   1.000000   1.000000
   41       -2.845881     -2.845881   1.000000   1.000000
   42       -2.758492     -2.758492   1.000000   1.000000
   43       -2.669061     -2.669061   1.000000   1.000000
   44       -2.644419     -2.644419   1.000000   1.000000
   45       -2.602006     -2.602006   1.000000   1.000000
   46       -2.556315     -2.556315   1.000000   1.000000
   47       -2.542831     -2.542831   1.000000   1.000000
   48       -2.421981     -2.421981   1.000000   1.000000
   49       -2.359101     -2.359101   1.000000   1.000000
   50       -2.158655     -2.158655   1.000000   1.000000
   51       -2.132509     -2.132509   1.000000   1.000000
   52       -1.997427     -1.997427   1.000000   1.000000
   53       -1.954283     -1.954283   1.000000   1.000000
   54       -1.703707     -1.703707   1.000000   1.000000
   55       -1.465309     -1.465309   1.000000   1.000000
   56       -1.300225     -1.300225   1.000000   1.000000
   57       -1.228467     -1.228467   1.000000   1.000000
   58       -1.142323     -1.142323   1.000000   1.000000
   59       -1.040636     -1.040636   1.000000   1.000000
   60       -0.848478     -0.848478   1.000000   1.000000
   61       -0.783982     -0.783982   1.000000   1.000000
   62       -0.675735     -0.675735   1.000000   1.000000
   63       -0.635580     -0.635580   1.000000   1.000000
   64       -0.509038     -0.509038   1.000000   1.000000
   65       -0.421918     -0.421918   1.000000   1.000000
   66       -0.329094     -0.329094   1.000000   1.000000
   67       -0.296220     -0.296220   1.000000   1.000000
   68       -0.213434     -0.213434   1.000000   1.000000
   69       -0.158500     -0.158500   1.000000   1.000000
   70       -0.062819     -0.062819   1.000000   1.000000
   71       -0.018915     -0.018915   1.000000   1.000000
   72        0.088608      0.088608   1.000000   1.000000
   73        0.183276      0.183276   1.000000   1.000000
   74        0.342175      0.342175   1.000000   1.000000
   75        0.407995      0.407995   1.000000   1.000000
   76        0.601014      0.601014   1.000000   1.000000
   77        0.666401      0.666401   1.000000   1.000000
   78        0.708775      0.708775   1.000000   1.000000
   79        0.768803      0.768803   1.000000   1.000000
   80        0.847077      0.847077   1.000000   1.000000
   81        0.951517      0.951517   1.000000   1.000000
   82        1.108751      1.108751   1.000000   1.000000
   83        1.115738      1.115738   1.000000   1.000000
   84        1.173947      1.173947   1.000000   1.000000
   85        1.226448      1.226448   1.000000   1.000000
   86        1.255938      1.255938   1.000000   1.000000
   87        1.421635      1.421635   1.000000   1.000000
   88        1.614919      1.614919   1.000000   1.000000
   89        2.427346      2.427346   1.000000   1.000000
   90        2.682478      2.682478   1.000000   1.000000
   91        2.721588      2.721588   1.000000   1.000000
   92        2.792088      2.792088   1.000000   1.000000
   93        2.840492      2.840492   1.000000   1.000000
   94        2.927805      2.927805   1.000000   1.000000
   95        2.968044      2.968044   1.000000   1.000000
   96        2.993334      2.993334   1.000000   1.000000
   97        3.108504      3.108504   1.000000   1.000000
   98        3.140110      3.140110   1.000000   1.000000
   99        3.219968      3.219968   1.000000   1.000000
  100        3.280480      3.280480   1.000000   1.000000
  101        3.341717      3.341717   1.000000   1.000000
  102        3.408994      3.408994   1.000000   1.000000
  103        3.451547      3.451547   1.000000   1.000000
  104        3.497302      3.497302   1.000000   1.000000
  105        3.541346      3.541346   1.000000   1.000000
  106        3.644661      3.644661   1.000000   1.000000
  107        3.837162      3.837162   1.000000   1.000000
  108        3.872033      3.872033   1.000000   1.000000
  109        3.961544      3.961544   1.000000   1.000000
  110        4.058243      4.058243   0.999997   0.999997
  111        4.386713      4.386713   0.995699   0.995699
  112        4.410083      4.410083   0.995136   0.995136
  113        4.455980      4.455980   0.996354   0.996354
  114        4.631449      4.631449   1.051615   1.051615
  115        4.810618      4.810618   0.571688   0.571688
  116        4.933397      4.933397   0.037048   0.037048
  117        5.042430      5.042430  -0.046668  -0.046668
  118        5.206732      5.206732   0.004516   0.004516
  119        6.287693      6.287693   0.000000   0.000000
  120        6.410290      6.410290   0.000000   0.000000
  121        6.658933      6.658933   0.000000   0.000000
  122        6.889505      6.889505   0.000000   0.000000
  123        6.974639      6.974639   0.000000   0.000000
  124        7.165830      7.165830   0.000000   0.000000
  125        7.274842      7.274842   0.000000   0.000000
  126        7.308006      7.308006   0.000000   0.000000
  127        7.337706      7.337706   0.000000   0.000000
  128        7.403959      7.403959   0.000000   0.000000
  129        7.563417      7.563417   0.000000   0.000000
  130        7.572201      7.572201   0.000000   0.000000
  131        7.632763      7.632763   0.000000   0.000000
  132        7.740785      7.740785   0.000000   0.000000
  133        7.757254      7.757254   0.000000   0.000000
  134        7.854618      7.854618   0.000000   0.000000
  135        7.974280      7.974280   0.000000   0.000000
  136        8.164735      8.164735   0.000000   0.000000
  137        8.312104      8.312104   0.000000   0.000000
  138        8.390484      8.390484   0.000000   0.000000
  139        8.414443      8.414443   0.000000   0.000000
  140        8.531767      8.531767   0.000000   0.000000
  141        8.874386      8.874386   0.000000   0.000000
  142        8.980511      8.980511   0.000000   0.000000
  143        9.302448      9.302448   0.000000   0.000000
  144       10.122055     10.122055   0.000000   0.000000
 
  0.2500000E+00  0.2500000E+00  0.1250000E+00  0.8333333E-01
    1      -30.553564    -30.553564   1.000000   1.000000
    2      -30.541202    -30.541202   1.000000   1.000000
    3      -16.004806    -16.004806   1.000000   1.000000
    4      -15.741964    -15.741964   1.000000   1.000000
    5      -15.505279    -15.505279   1.000000   1.000000
    6      -15.446312    -15.446312   1.000000   1.000000
    7      -15.432795    -15.432795   1.000000   1.000000
    8      -15.373707    -15.373707   1.000000   1.000000
    9      -15.293056    -15.293056   1.000000   1.000000
   10      -15.154589    -15.154589   1.000000   1.000000
   11      -15.066870    -15.066870   1.000000   1.000000
   12      -15.028524    -15.028524   1.000000   1.000000
   13      -14.867150    -14.867150   1.000000   1.000000
   14      -14.770396    -14.770396   1.000000   1.000000
   15      -14.676501    -14.676501   1.000000   1.000000
   16      -14.644436    -14.644436   1.000000   1.000000
   17      -14.512443    -14.512443   1.000000   1.000000
   18      -14.480792    -14.480792   1.000000   1.000000
   19      -14.427690    -14.427690   1.000000   1.000000
   20      -14.349115    -14.349115   1.000000   1.000000
   21      -14.312375    -14.312375   1.000000   1.000000
   22      -14.212687    -14.212687   1.000000   1.000000
   23      -12.625057    -12.625057   1.000000   1.000000
   24      -12.622407    -12.622407   1.000000   1.000000
   25      -12.486595    -12.486595   1.000000   1.000000
   26      -12.400721    -12.400721   1.000000   1.000000
   27      -12.233408    -12.233408   1.000000   1.000000
   28      -12.180408    -12.180408   1.000000   1.000000
   29       -3.722450     -3.722450   1.000000   1.000000
   30       -3.674299     -3.674299   1.000000   1.000000
   31       -3.550112     -3.550112   1.000000   1.000000
   32       -3.493251     -3.493251   1.000000   1.000000
   33       -3.427758     -3.427758   1.000000   1.000000
   34       -3.280462     -3.280462   1.000000   1.000000
   35       -3.185468     -3.185468   1.000000   1.000000
   36       -3.147591     -3.147591   1.000000   1.000000
   37       -3.086340     -3.086340   1.000000   1.000000
   38       -3.028081     -3.028081   1.000000   1.000000
   39       -2.904750     -2.904750   1.000000   1.000000
   40       -2.775092     -2.775092   1.000000   1.000000
   41       -2.763270     -2.763270   1.000000   1.000000
   42       -2.703756     -2.703756   1.000000   1.000000
   43       -2.585737     -2.585737   1.000000   1.000000
   44       -2.542408     -2.542408   1.000000   1.000000
   45       -2.510322     -2.510322   1.000000   1.000000
   46       -2.441467     -2.441467   1.000000   1.000000
   47       -2.378651     -2.378651   1.000000   1.000000
   48       -2.299556     -2.299556   1.000000   1.000000
   49       -2.264623     -2.264623   1.000000   1.000000
   50       -2.153698     -2.153698   1.000000   1.000000
   51       -2.078381     -2.078381   1.000000   1.000000
   52       -1.976774     -1.976774   1.000000   1.000000
   53       -1.907424     -1.907424   1.000000   1.000000
   54       -1.757904     -1.757904   1.000000   1.000000
   55       -1.679248     -1.679248   1.000000   1.000000
   56       -1.600185     -1.600185   1.000000   1.000000
   57       -1.496994     -1.496994   1.000000   1.000000
   58       -1.409464     -1.409464   1.000000   1.000000
   59       -1.273024     -1.273024   1.000000   1.000000
   60       -1.229216     -1.229216   1.000000   1.000000
   61       -1.094303     -1.094303   1.000000   1.000000
   62       -0.955935     -0.955935   1.000000   1.000000
   63       -0.859005     -0.859005   1.000000   1.000000
   64       -0.796249     -0.796249   1.000000   1.000000
   65       -0.702150     -0.702150   1.000000   1.000000
   66       -0.539841     -0.539841   1.000000   1.000000
   67       -0.510349     -0.510349   1.000000   1.000000
   68       -0.406373     -0.406373   1.000000   1.000000
   69       -0.361931     -0.361931   1.000000   1.000000
   70       -0.265954     -0.265954   1.000000   1.000000
   71       -0.181518     -0.181518   1.000000   1.000000
   72       -0.054786     -0.054786   1.000000   1.000000
   73        0.031814      0.031814   1.000000   1.000000
   74        0.127908      0.127908   1.000000   1.000000
   75        0.134393      0.134393   1.000000   1.000000
   76        0.254201      0.254201   1.000000   1.000000
   77        0.302290      0.302290   1.000000   1.000000
   78        0.387212      0.387212   1.000000   1.000000
   79        0.400029      0.400029   1.000000   1.000000
   80        0.412028      0.412028   1.000000   1.000000
   81        0.563098      0.563098   1.000000   1.000000
   82        0.785979      0.785979   1.000000   1.000000
   83        0.817187      0.817187   1.000000   1.000000
   84        0.935563      0.935563   1.000000   1.000000
   85        1.049738      1.049738   1.000000   1.000000
   86        1.119529      1.119529   1.000000   1.000000
   87        1.235276      1.235276   1.000000   1.000000
   88        1.477344      1.477344   1.000000   1.000000
   89        2.561892      2.561892   1.000000   1.000000
   90        2.647779      2.647779   1.000000   1.000000
   91        2.924516      2.924516   1.000000   1.000000
   92        2.982636      2.982636   1.000000   1.000000
   93        3.079223      3.079223   1.000000   1.000000
   94        3.105789      3.105789   1.000000   1.000000
   95        3.181670      3.181670   1.000000   1.000000
   96        3.266039      3.266039   1.000000   1.000000
   97        3.287762      3.287762   1.000000   1.000000
   98        3.385029      3.385029   1.000000   1.000000
   99        3.451919      3.451919   1.000000   1.000000
  100        3.545086      3.545086   1.000000   1.000000
  101        3.643310      3.643310   1.000000   1.000000
  102        3.665812      3.665812   1.000000   1.000000
  103        3.693405      3.693405   1.000000   1.000000
  104        3.790741      3.790741   1.000000   1.000000
  105        3.904289      3.904289   1.000000   1.000000
  106        4.020087      4.020087   0.999999   0.999999
  107        4.144178      4.144178   0.999962   0.999962
  108        4.173257      4.173257   0.999916   0.999916
  109        4.227318      4.227318   0.999680   0.999680
  110        4.277194      4.277194   0.999079   0.999079
  111        4.417215      4.417215   0.995071   0.995071
  112        4.490637      4.490637   1.001292   1.001292
  113        4.599609      4.599609   1.044349   1.044349
  114        4.717409      4.717409   0.957026   0.957026
  115        4.816631      4.816631   0.540098   0.540098
  116        4.854528      4.854528   0.342522   0.342522
  117        4.983894      4.983894  -0.040982  -0.040982
  118        5.019040      5.019040  -0.051544  -0.051544
  119        6.198096      6.198096   0.000000   0.000000
  120        6.444807      6.444807   0.000000   0.000000
  121        6.499481      6.499481   0.000000   0.000000
  122        6.591408      6.591408   0.000000   0.000000
  123        6.792832      6.792832   0.000000   0.000000
  124        6.855661      6.855661   0.000000   0.000000
  125        6.962031      6.962031   0.000000   0.000000
  126        6.979874      6.979874   0.000000   0.000000
  127        7.115235      7.115235   0.000000   0.000000
  128        7.195771      7.195771   0.000000   0.000000
  129        7.232384      7.232384   0.000000   0.000000
  130        7.455427      7.455427   0.000000   0.000000
  131        7.550248      7.550248   0.000000   0.000000
  132        7.611006      7.611006   0.000000   0.000000
  133        7.723443      7.723443   0.000000   0.000000
  134        7.805798      7.805798   0.000000   0.000000
  135        7.932172      7.932172   0.000000   0.000000
  136        7.987194      7.987194   0.000000   0.000000
  137        8.152511      8.152511   0.000000   0.000000
  138        8.422812      8.422812   0.000000   0.000000
  139        8.485305      8.485305   0.000000   0.000000
  140        8.823602      8.823602   0.000000   0.000000
  141        9.693494      9.693494   0.000000   0.000000
  142       10.043545     10.043545   0.000000   0.000000
  143       10.171163     10.171163   0.000000   0.000000
  144       10.609159     10.609155   0.000000   0.000000
 
 -0.2500000E+00  0.2500000E+00  0.1250000E+00  0.8333333E-01
    1      -30.553564    -30.553564   1.000000   1.000000
    2      -30.541203    -30.541203   1.000000   1.000000
    3      -16.004825    -16.004825   1.000000   1.000000
    4      -15.740515    -15.740515   1.000000   1.000000
    5      -15.517274    -15.517274   1.000000   1.000000
    6      -15.447483    -15.447483   1.000000   1.000000
    7      -15.424467    -15.424467   1.000000   1.000000
    8      -15.367704    -15.367704   1.000000   1.000000
    9      -15.289732    -15.289732   1.000000   1.000000
   10      -15.155898    -15.155898   1.000000   1.000000
   11      -15.089024    -15.089024   1.000000   1.000000
   12      -15.011392    -15.011392   1.000000   1.000000
   13      -14.866534    -14.866534   1.000000   1.000000
   14      -14.769720    -14.769720   1.000000   1.000000
   15      -14.675339    -14.675339   1.000000   1.000000
   16      -14.649227    -14.649227   1.000000   1.000000
   17      -14.512185    -14.512185   1.000000   1.000000
   18      -14.478882    -14.478882   1.000000   1.000000
   19      -14.426986    -14.426986   1.000000   1.000000
   20      -14.351385    -14.351385   1.000000   1.000000
   21      -14.310260    -14.310260   1.000000   1.000000
   22      -14.213110    -14.213110   1.000000   1.000000
   23      -12.625050    -12.625050   1.000000   1.000000
   24      -12.622385    -12.622385   1.000000   1.000000
   25      -12.486595    -12.486595   1.000000   1.000000
   26      -12.400718    -12.400718   1.000000   1.000000
   27      -12.233417    -12.233417   1.000000   1.000000
   28      -12.180422    -12.180422   1.000000   1.000000
   29       -3.722147     -3.722147   1.000000   1.000000
   30       -3.672460     -3.672460   1.000000   1.000000
   31       -3.551659     -3.551659   1.000000   1.000000
   32       -3.498992     -3.498992   1.000000   1.000000
   33       -3.426581     -3.426581   1.000000   1.000000
   34       -3.274138     -3.274138   1.000000   1.000000
   35       -3.189695     -3.189695   1.000000   1.000000
   36       -3.143580     -3.143580   1.000000   1.000000
   37       -3.096085     -3.096085   1.000000   1.000000
   38       -3.027603     -3.027603   1.000000   1.000000
   39       -2.886873     -2.886873   1.000000   1.000000
   40       -2.769617     -2.769617   1.000000   1.000000
   41       -2.727722     -2.727722   1.000000   1.000000
   42       -2.717233     -2.717233   1.000000   1.000000
   43       -2.623056     -2.623056   1.000000   1.000000
   44       -2.566939     -2.566939   1.000000   1.000000
   45       -2.517238     -2.517238   1.000000   1.000000
   46       -2.459708     -2.459708   1.000000   1.000000
   47       -2.358309     -2.358309   1.000000   1.000000
   48       -2.300118     -2.300118   1.000000   1.000000
   49       -2.252587     -2.252587   1.000000   1.000000
   50       -2.162380     -2.162380   1.000000   1.000000
   51       -2.018988     -2.018988   1.000000   1.000000
   52       -1.950406     -1.950406   1.000000   1.000000
   53       -1.901841     -1.901841   1.000000   1.000000
   54       -1.795999     -1.795999   1.000000   1.000000
   55       -1.688540     -1.688540   1.000000   1.000000
   56       -1.609756     -1.609756   1.000000   1.000000
   57       -1.553649     -1.553649   1.000000   1.000000
   58       -1.400245     -1.400245   1.000000   1.000000
   59       -1.290874     -1.290874   1.000000   1.000000
   60       -1.190772     -1.190772   1.000000   1.000000
   61       -1.105524     -1.105524   1.000000   1.000000
   62       -0.934786     -0.934786   1.000000   1.000000
   63       -0.877764     -0.877764   1.000000   1.000000
   64       -0.734881     -0.734881   1.000000   1.000000
   65       -0.695622     -0.695622   1.000000   1.000000
   66       -0.556502     -0.556502   1.000000   1.000000
   67       -0.500731     -0.500731   1.000000   1.000000
   68       -0.429761     -0.429761   1.000000   1.000000
   69       -0.334904     -0.334904   1.000000   1.000000
   70       -0.301618     -0.301618   1.000000   1.000000
   71       -0.221394     -0.221394   1.000000   1.000000
   72        0.008131      0.008131   1.000000   1.000000
   73        0.028524      0.028524   1.000000   1.000000
   74        0.089117      0.089117   1.000000   1.000000
   75        0.142539      0.142539   1.000000   1.000000
   76        0.263550      0.263550   1.000000   1.000000
   77        0.299458      0.299458   1.000000   1.000000