       N       E                     dE             d eps       ncg     rms          rms(c)
DAV:   1     0.235735055018E+04    0.23574E+04   -0.98007E+04  6912   0.129E+03
DAV:   2     0.678429709833E+02   -0.22895E+04   -0.21666E+04  7120   0.425E+02
DAV:   3    -0.223295037323E+03   -0.29114E+03   -0.27864E+03  9264   0.159E+02
DAV:   4    -0.237888567599E+03   -0.14594E+02   -0.14160E+02  9416   0.342E+01
DAV:   5    -0.238571464632E+03   -0.68290E+00   -0.67987E+00 10800   0.608E+00    0.156E+02
RMM:   6    -0.217871261096E+03    0.20700E+02   -0.25757E+02  7133   0.408E+01    0.893E+01
RMM:   7    -0.212755144860E+03    0.51161E+01   -0.34045E+01  6922   0.153E+01    0.647E+01
RMM:   8    -0.225539527741E+03   -0.12784E+02   -0.77880E+01  7494   0.197E+01    0.128E+02
RMM:   9    -0.224320671578E+03    0.12189E+01   -0.17611E+01  8685   0.653E+00    0.135E+02
RMM:  10    -0.229157284355E+03   -0.48366E+01   -0.14224E+01  7246   0.778E+00    0.138E+02
RMM:  11    -0.214951963822E+03    0.14205E+02   -0.12742E+01  6969   0.858E+00    0.372E+01
RMM:  12    -0.204090186046E+03    0.10862E+02   -0.18208E+01  6924   0.105E+01    0.563E+01
RMM:  13    -0.201189787461E+03    0.29004E+01   -0.20722E+00  7319   0.332E+00    0.449E+01
RMM:  14    -0.200654141721E+03    0.53565E+00   -0.51201E-01  7534   0.161E+00    0.420E+01
RMM:  15    -0.200127655759E+03    0.52649E+00   -0.16546E-01  7163   0.997E-01    0.386E+01
RMM:  16    -0.198763280996E+03    0.13644E+01   -0.86758E-01  6952   0.221E+00    0.282E+01
RMM:  17    -0.198383883882E+03    0.37940E+00   -0.45689E-01  7296   0.158E+00    0.238E+01
RMM:  18    -0.198289709214E+03    0.94175E-01   -0.19086E-01  7712   0.880E-01    0.183E+01
RMM:  19    -0.198262950462E+03    0.26759E-01   -0.10284E-01  7275   0.722E-01    0.124E+01
RMM:  20    -0.198646161115E+03   -0.38321E+00   -0.30615E-01  6952   0.131E+00    0.765E+00
RMM:  21    -0.198570544566E+03    0.75617E-01   -0.43096E-02  7904   0.535E-01    0.541E+00
RMM:  22    -0.198479705052E+03    0.90840E-01   -0.28495E-02  7035   0.418E-01    0.512E+00
RMM:  23    -0.198478002438E+03    0.17026E-02   -0.24530E-02  7098   0.400E-01    0.821E+00
RMM:  24    -0.198428620958E+03    0.49381E-01   -0.26840E-02  6985   0.366E-01    0.674E+00
RMM:  25    -0.198432122940E+03   -0.35020E-02   -0.76247E-03  7407   0.209E-01    0.588E+00
RMM:  26    -0.198427138564E+03    0.49844E-02   -0.47661E-02  6948   0.492E-01    0.244E+00
RMM:  27    -0.198421465792E+03    0.56728E-02   -0.64091E-03  7557   0.224E-01    0.203E+00
RMM:  28    -0.198420323560E+03    0.11422E-02   -0.20413E-03  6998   0.982E-02    0.194E+00
RMM:  29    -0.198420898329E+03   -0.57477E-03   -0.30842E-03  6982   0.127E-01    0.784E-01
RMM:  30    -0.198420670993E+03    0.22734E-03   -0.11609E-03  7339   0.825E-02    0.316E-01
RMM:  31    -0.198420647940E+03    0.23052E-04   -0.25236E-04  7621   0.399E-02    0.415E-01
RMM:  32    -0.198421168338E+03   -0.52040E-03   -0.57132E-04  6925   0.609E-02    0.112E+00
RMM:  33    -0.198420941138E+03    0.22720E-03   -0.13960E-04  6930   0.313E-02    0.790E-01
RMM:  34    -0.198420764651E+03    0.17649E-03   -0.21219E-04  6947   0.363E-02    0.419E-01
RMM:  35    -0.198420835743E+03   -0.71092E-04   -0.15327E-04  7055   0.332E-02    0.279E-01
RMM:  36    -0.198420876491E+03   -0.40749E-04   -0.11348E-04  7262   0.267E-02    0.142E-01
RMM:  37    -0.198420893084E+03   -0.16593E-04   -0.44050E-05  7534   0.177E-02    0.755E-02
RMM:  38    -0.198420863818E+03    0.29266E-04   -0.14445E-05  7104   0.956E-03    0.613E-02
RMM:  39    -0.198420857269E+03    0.65493E-05   -0.93629E-06  7217   0.812E-03    0.541E-02
RMM:  40    -0.198420838804E+03    0.18464E-04   -0.15561E-05  6929   0.104E-02    0.383E-02
RMM:  41    -0.198420829704E+03    0.91007E-05   -0.12443E-05  7059   0.943E-03    0.161E-02
RMM:  42    -0.198420828999E+03    0.70444E-06   -0.47253E-06  7670   0.529E-03    0.112E-02
RMM:  43    -0.198420828878E+03    0.12103E-06   -0.16452E-06  7048   0.319E-03    0.538E-03
RMM:  44    -0.198420829573E+03   -0.69492E-06   -0.14437E-06  6682   0.303E-03    0.670E-03
RMM:  45    -0.198420829790E+03   -0.21661E-06   -0.33377E-07  4768   0.169E-03    0.761E-03
RMM:  46    -0.198420830168E+03   -0.37830E-06   -0.65693E-07  5965   0.209E-03    0.109E-02
RMM:  47    -0.198420829735E+03    0.43262E-06   -0.41442E-07  4965   0.175E-03    0.410E-03
RMM:  48    -0.198420829777E+03   -0.41626E-07   -0.45753E-08  4067   0.785E-04
   1 F= -.19842083E+03 E0= -.19841687E+03  d E =-.198421E+03  mag=     0.3347
       N       E                     dE             d eps       ncg     rms          rms(c)
DAV:   1    -0.335987272576E+03   -0.13757E+03   -0.11206E+04  7112   0.348E+02    0.212E+02
RMM:   2    -0.314014687594E+03    0.21973E+02   -0.10694E+03  7292   0.874E+01    0.153E+02
RMM:   3    -0.298736466053E+03    0.15278E+02   -0.23330E+02  7667   0.387E+01    0.156E+02
RMM:   4    -0.202694467031E+03    0.96042E+02   -0.82918E+01  7256   0.240E+01    0.108E+02
RMM:   5    -0.193067091088E+03    0.96274E+01   -0.42217E+01  7389   0.153E+01    0.116E+02
RMM:   6    -0.187633918396E+03    0.54332E+01   -0.17793E+01  8187   0.951E+00    0.101E+02
RMM:   7    -0.176540248064E+03    0.11094E+02   -0.10976E+01  7463   0.802E+00    0.964E+01
RMM:   8    -0.188255702379E+03   -0.11715E+02   -0.21240E+01  7874   0.989E+00    0.812E+01
RMM:   9    -0.173616426386E+03    0.14639E+02   -0.13144E+01  7232   0.862E+00    0.604E+01
RMM:  10    -0.171307709456E+03    0.23087E+01   -0.17731E+01  8079   0.849E+00    0.402E+01
RMM:  11    -0.166048053912E+03    0.52597E+01   -0.59319E+00  7675   0.557E+00    0.292E+01
RMM:  12    -0.164808574333E+03    0.12395E+01   -0.30240E+00  7622   0.387E+00    0.204E+01
RMM:  13    -0.164211988500E+03    0.59659E+00   -0.10988E+00  8249   0.225E+00    0.165E+01
RMM:  14    -0.163723908465E+03    0.48808E+00   -0.56591E-01  7339   0.181E+00    0.116E+01
RMM:  15    -0.163214000639E+03    0.50991E+00   -0.39594E-01  8005   0.136E+00    0.669E+00
RMM:  16    -0.163113507934E+03    0.10049E+00   -0.24784E-01  7960   0.100E+00    0.547E+00
RMM:  17    -0.162957960456E+03    0.15555E+00   -0.78128E-02  7654   0.661E-01    0.384E+00
RMM:  18    -0.162950967904E+03    0.69926E-02   -0.48925E-02  7861   0.482E-01    0.303E+00
RMM:  19    -0.162943545286E+03    0.74226E-02   -0.10308E-02  8833   0.209E-01    0.280E+00
RMM:  20    -0.162943580003E+03   -0.34716E-04   -0.20506E-03  9351   0.103E-01    0.282E+00
RMM:  21    -0.162932146574E+03    0.11433E-01   -0.13218E-02  7330   0.260E-01    0.274E+00
RMM:  22    -0.162911372671E+03    0.20774E-01   -0.10371E-02  7663   0.214E-01    0.235E+00
RMM:  23    -0.162902696670E+03    0.86760E-02   -0.79863E-03  7536   0.204E-01    0.196E+00
RMM:  24    -0.162895758838E+03    0.69378E-02   -0.26563E-03  7247   0.124E-01    0.183E+00
RMM:  25    -0.162901026218E+03   -0.52674E-02   -0.19137E-03  6954   0.134E-01    0.194E+00
RMM:  26    -0.162896383746E+03    0.46425E-02   -0.50062E-03  6927   0.166E-01    0.193E+00
RMM:  27    -0.162893196964E+03    0.31868E-02   -0.11314E-03  6968   0.103E-01    0.178E+00
RMM:  28    -0.162884358178E+03    0.88388E-02   -0.24501E-03  6934   0.127E-01    0.143E+00
RMM:  29    -0.162879164840E+03    0.51933E-02   -0.17732E-03  7386   0.979E-02    0.979E-01
RMM:  30    -0.162877605500E+03    0.15593E-02   -0.11987E-03  7698   0.812E-02    0.741E-01
RMM:  31    -0.162878119806E+03   -0.51431E-03   -0.28474E-04  8217   0.427E-02    0.711E-01
RMM:  32    -0.162877717819E+03    0.40199E-03   -0.85964E-04  6940   0.701E-02    0.770E-01
RMM:  33    -0.162877036347E+03    0.68147E-03   -0.30972E-04  7134   0.412E-02    0.713E-01
RMM:  34    -0.162876909081E+03    0.12727E-03   -0.18577E-04  7225   0.325E-02    0.674E-01
RMM:  35    -0.162875225505E+03    0.16836E-02   -0.36598E-04  6950   0.489E-02    0.397E-01
RMM:  36    -0.162874480444E+03    0.74506E-03   -0.65824E-04  7144   0.608E-02    0.186E-01
RMM:  37    -0.162874579207E+03   -0.98763E-04   -0.36262E-04  7892   0.449E-02    0.906E-02
RMM:  38    -0.162874678003E+03   -0.98796E-04   -0.11046E-04  7742   0.274E-02    0.552E-02
RMM:  39    -0.162874684671E+03   -0.66685E-05   -0.69169E-05  7155   0.206E-02    0.463E-02
RMM:  40    -0.162874676939E+03    0.77318E-05   -0.26371E-05  6913   0.168E-02    0.335E-02
RMM:  41    -0.162874679238E+03   -0.22990E-05   -0.95631E-06  7144   0.728E-03    0.190E-02
RMM:  42    -0.162874682414E+03   -0.31754E-05   -0.66836E-06  7151   0.635E-03    0.276E-02
RMM:  43    -0.162874685918E+03   -0.35047E-05   -0.26572E-06  6943   0.456E-03    0.268E-02
RMM:  44    -0.162874684652E+03    0.12665E-05   -0.16762E-06  6724   0.338E-03    0.213E-02
RMM:  45    -0.162874683372E+03    0.12798E-05   -0.74946E-07  6325   0.219E-03    0.167E-02
RMM:  46    -0.162874682637E+03    0.73489E-06   -0.43694E-07  5244   0.153E-03    0.127E-02
RMM:  47    -0.162874682219E+03    0.41845E-06   -0.22154E-07  4259   0.121E-03    0.952E-03
RMM:  48    -0.162874682192E+03    0.26987E-07   -0.12092E-07  4042   0.106E-03
   2 F= -.16287468E+03 E0= -.16287046E+03  d E =0.355461E+02  mag=     0.0002
       N       E                     dE             d eps       ncg     rms          rms(c)
DAV:   1    -0.326045872104E+03   -0.16317E+03   -0.60840E+03  6912   0.273E+02    0.134E+02
RMM:   2    -0.237489302687E+03    0.88557E+02   -0.38343E+02  6912   0.578E+01    0.559E+01
RMM:   3    -0.225020533595E+03    0.12469E+02   -0.64981E+01  7065   0.248E+01    0.472E+01
RMM:   4    -0.227428722973E+03   -0.24082E+01   -0.28797E+01  6962   0.146E+01    0.705E+01
RMM:   5    -0.218219912366E+03    0.92088E+01   -0.76120E+00  7265   0.651E+00    0.331E+01
RMM:   6    -0.221198372581E+03   -0.29785E+01   -0.14605E+01  7011   0.977E+00    0.391E+01
RMM:   7    -0.211106528245E+03    0.10092E+02   -0.50155E+00  7105   0.583E+00    0.163E+01
RMM:   8    -0.209097719635E+03    0.20088E+01   -0.16914E+00  7096   0.345E+00    0.147E+01
RMM:   9    -0.208902898513E+03    0.19482E+00   -0.54857E-01  7851   0.171E+00    0.949E+00
RMM:  10    -0.208920393470E+03   -0.17495E-01   -0.64337E-01  7334   0.182E+00    0.964E+00
RMM:  11    -0.208873059485E+03    0.47334E-01   -0.46652E-01  7903   0.160E+00    0.598E+00
RMM:  12    -0.208787889926E+03    0.85170E-01   -0.29487E-01  7977   0.132E+00    0.367E+00
RMM:  13    -0.208751345776E+03    0.36544E-01   -0.74079E-02  8761   0.652E-01    0.288E+00
RMM:  14    -0.208731883191E+03    0.19463E-01   -0.23603E-02  9398   0.313E-01    0.200E+00
RMM:  15    -0.208732593705E+03   -0.71051E-03   -0.11230E-02  9183   0.219E-01    0.184E+00
RMM:  16    -0.208720946593E+03    0.11647E-01   -0.12474E-02  7965   0.250E-01    0.703E-01
RMM:  17    -0.208721195821E+03   -0.24923E-03   -0.35639E-03  9375   0.125E-01    0.612E-01
RMM:  18    -0.208720145450E+03    0.10504E-02   -0.12836E-03  9338   0.678E-02    0.412E-01
RMM:  19    -0.208719856506E+03    0.28894E-03   -0.60035E-04  8976   0.453E-02    0.246E-01
RMM:  20    -0.208719676293E+03    0.18021E-03   -0.39545E-04  8406   0.397E-02    0.144E-01
RMM:  21    -0.208719657330E+03    0.18963E-04   -0.11518E-04  8830   0.214E-02    0.104E-01
RMM:  22    -0.208719652055E+03    0.52755E-05   -0.40319E-05  9056   0.109E-02    0.712E-02
RMM:  23    -0.208719650028E+03    0.20266E-05   -0.27281E-05  8418   0.105E-02    0.379E-02
RMM:  24    -0.208719652139E+03   -0.21114E-05   -0.10322E-05  8479   0.507E-03    0.384E-02
RMM:  25    -0.208719650034E+03    0.21054E-05   -0.47305E-06  8354   0.500E-03    0.438E-02
RMM:  26    -0.208719645412E+03    0.46221E-05   -0.28262E-06  8195   0.373E-03    0.356E-02
RMM:  27    -0.208719638245E+03    0.71668E-05   -0.59960E-06  7654   0.580E-03    0.309E-02
RMM:  28    -0.208719635573E+03    0.26721E-05   -0.25552E-06  7681   0.387E-03    0.266E-02
RMM:  29    -0.208719635080E+03    0.49326E-06   -0.12581E-06  7357   0.252E-03    0.225E-02
RMM:  30    -0.208719635175E+03   -0.95584E-07   -0.22644E-07  4637   0.130E-03
   3 F= -.20871964E+03 E0= -.20871399E+03  d E =-.102988E+02  mag=     0.0165
       N       E                     dE             d eps       ncg     rms          rms(c)
DAV:   1    -0.209618298110E+03   -0.89866E+00   -0.28401E+01  7248   0.191E+01    0.689E+00
RMM:   2    -0.209253328165E+03    0.36497E+00   -0.12777E+00  6989   0.353E+00    0.576E+00
RMM:   3    -0.209229904290E+03    0.23424E-01   -0.19905E-01  7012   0.137E+00    0.416E+00
RMM:   4    -0.209319001070E+03   -0.89097E-01   -0.25012E-01  6946   0.139E+00    0.557E+00
RMM:   5    -0.209164151838E+03    0.15485E+00   -0.12685E-01  6988   0.104E+00    0.253E+00
RMM:   6    -0.209146854468E+03    0.17297E-01   -0.40566E-02  7084   0.547E-01    0.191E+00
RMM:   7    -0.209133260485E+03    0.13594E-01   -0.16221E-02  7073   0.340E-01    0.123E+00
RMM:   8    -0.209124917523E+03    0.83430E-02   -0.66907E-03  7048   0.225E-01    0.615E-01
RMM:   9    -0.209123159283E+03    0.17582E-02   -0.21163E-03  7119   0.127E-01    0.335E-01
RMM:  10    -0.209122597096E+03    0.56219E-03   -0.68729E-04  7995   0.628E-02    0.133E-01
RMM:  11    -0.209122558525E+03    0.38571E-04   -0.23093E-04  8947   0.326E-02    0.750E-02
RMM:  12    -0.209122577844E+03   -0.19319E-04   -0.11986E-04  8986   0.249E-02    0.312E-02
RMM:  13    -0.209122590694E+03   -0.12850E-04   -0.32373E-05  9595   0.116E-02    0.314E-02
RMM:  14    -0.209122598142E+03   -0.74481E-05   -0.10813E-05 10145   0.554E-03    0.332E-02
RMM:  15    -0.209122571211E+03    0.26932E-04   -0.32609E-05  7461   0.159E-02    0.365E-02
RMM:  16    -0.209122564742E+03    0.64684E-05   -0.73938E-06  8229   0.689E-03    0.335E-02
RMM:  17    -0.209122554881E+03    0.98618E-05   -0.11305E-05  7341   0.857E-03    0.243E-02
RMM:  18    -0.209122539461E+03    0.15419E-04   -0.23362E-05  6964   0.126E-02    0.150E-02
RMM:  19    -0.209122534808E+03    0.46531E-05   -0.18019E-05  6936   0.109E-02    0.874E-03
RMM:  20    -0.209122535817E+03   -0.10084E-05   -0.71622E-06  7345   0.701E-03    0.535E-03
RMM:  21    -0.209122536246E+03   -0.42982E-06   -0.12543E-06  6302   0.421E-03    0.240E-03
RMM:  22    -0.209122536224E+03    0.22359E-07   -0.21894E-07  4581   0.115E-03
   4 F= -.20912254E+03 E0= -.20911676E+03  d E =-.107017E+02  mag=     0.0004
       N       E                     dE             d eps       ncg     rms          rms(c)
DAV:   1    -0.209197188166E+03   -0.74652E-01   -0.28670E+00  7416   0.608E+00    0.222E+00
RMM:   2    -0.209160816731E+03    0.36371E-01   -0.12608E-01  7014   0.111E+00    0.182E+00
RMM:   3    -0.209159617312E+03    0.11994E-02   -0.22080E-02  7015   0.458E-01    0.142E+00
RMM:   4    -0.209166381318E+03   -0.67640E-02   -0.24750E-02  6922   0.436E-01    0.176E+00
RMM:   5    -0.209154676495E+03    0.11705E-01   -0.12293E-02  6990   0.323E-01    0.101E+00
RMM:   6    -0.209149661765E+03    0.50147E-02   -0.40158E-03  7060   0.176E-01    0.502E-01
RMM:   7    -0.209149689907E+03   -0.28142E-04   -0.19565E-03  7083   0.117E-01    0.459E-01
RMM:   8    -0.209148570066E+03    0.11198E-02   -0.85528E-04  7019   0.809E-02    0.257E-01
RMM:   9    -0.209148237530E+03    0.33254E-03   -0.28792E-04  7082   0.472E-02    0.103E-01
RMM:  10    -0.209148177837E+03    0.59692E-04   -0.76281E-05  8273   0.205E-02    0.335E-02
RMM:  11    -0.209148175457E+03    0.23800E-05   -0.18446E-05  8958   0.946E-03    0.205E-02
RMM:  12    -0.209148177585E+03   -0.21278E-05   -0.91154E-06  8947   0.658E-03    0.603E-03
RMM:  13    -0.209148177846E+03   -0.26119E-06   -0.23368E-06  8835   0.296E-03    0.358E-03
RMM:  14    -0.209148177710E+03    0.13646E-06   -0.61292E-07  5945   0.155E-03    0.215E-03
RMM:  15    -0.209148177843E+03   -0.13299E-06   -0.25628E-07  4821   0.109E-03    0.137E-03
RMM:  16    -0.209148177869E+03   -0.25721E-07   -0.88824E-08  4319   0.749E-04
   5 F= -.20914818E+03 E0= -.20914210E+03  d E =-.107273E+02  mag=    -0.0021
       N       E                     dE             d eps       ncg     rms          rms(c)
DAV:   1    -0.213549875559E+03   -0.44017E+01   -0.49888E+02  6912   0.690E+01    0.145E+01
RMM:   2    -0.214769453861E+03   -0.12196E+01   -0.21072E+01  6912   0.140E+01    0.172E+01
RMM:   3    -0.212553950263E+03    0.22155E+01   -0.24445E+00  7040   0.457E+00    0.108E+01
RMM:   4    -0.212294663722E+03    0.25929E+00   -0.11846E+00  7257   0.280E+00    0.822E+00
RMM:   5    -0.211674644191E+03    0.62002E+00   -0.62079E-01  7110   0.203E+00    0.423E+00
RMM:   6    -0.211723506105E+03   -0.48862E-01   -0.27088E-01  7186   0.135E+00    0.524E+00
RMM:   7    -0.211590431182E+03    0.13307E+00   -0.82822E-02  7376   0.736E-01    0.214E+00
RMM:   8    -0.211583333323E+03    0.70979E-02   -0.30772E-02  7931   0.398E-01    0.156E+00
RMM:   9    -0.211573149100E+03    0.10184E-01   -0.20999E-02  7259   0.373E-01    0.102E+00
RMM:  10    -0.211571284228E+03    0.18649E-02   -0.39470E-03  8015   0.158E-01    0.418E-01
RMM:  11    -0.211573110144E+03   -0.18259E-02   -0.18032E-03  7355   0.966E-02    0.303E-01
RMM:  12    -0.211573557834E+03   -0.44769E-03   -0.87466E-04  7200   0.661E-02    0.196E-01
RMM:  13    -0.211573700248E+03   -0.14241E-03   -0.39225E-04  7236   0.428E-02    0.153E-01
RMM:  14    -0.211573452579E+03    0.24767E-03   -0.13843E-04  7811   0.225E-02    0.120E-01
RMM:  15    -0.211573230646E+03    0.22193E-03   -0.32516E-04  6995   0.341E-02    0.320E-02
RMM:  16    -0.211573206232E+03    0.24414E-04   -0.37492E-05  7843   0.128E-02    0.326E-02
RMM:  17    -0.211573168941E+03    0.37291E-04   -0.27434E-05  7449   0.106E-02    0.173E-02
RMM:  18    -0.211573156049E+03    0.12892E-04   -0.13077E-05  7657   0.690E-03    0.594E-03
RMM:  19    -0.211573153375E+03    0.26734E-05   -0.51685E-06  7729   0.387E-03    0.304E-03
RMM:  20    -0.211573152828E+03    0.54756E-06   -0.16345E-06  6510   0.219E-03    0.189E-03
RMM:  21    -0.211573152843E+03   -0.15418E-07   -0.43961E-07  4638   0.972E-04
   6 F= -.21157315E+03 E0= -.21157380E+03  d E =-.242497E+01  mag=    -0.0029
       N       E                     dE             d eps       ncg     rms          rms(c)
DAV:   1    -0.212300153398E+03   -0.72700E+00   -0.10780E+02  6912   0.322E+01    0.666E+00
RMM:   2    -0.212482456461E+03   -0.18230E+00   -0.39467E+00  6918   0.624E+00    0.849E+00
RMM:   3    -0.211983931127E+03    0.49853E+00   -0.46060E-01  7050   0.202E+00    0.426E+00
RMM:   4    -0.211911798624E+03    0.72133E-01   -0.23949E-01  7150   0.130E+00    0.376E+00
RMM:   5    -0.211848331220E+03    0.63467E-01   -0.10100E-01  7136   0.834E-01    0.216E+00
RMM:   6    -0.211832737053E+03    0.15594E-01   -0.43289E-02  7309   0.535E-01    0.118E+00
RMM:   7    -0.211827653240E+03    0.50838E-02   -0.14128E-02  7304   0.301E-01    0.835E-01
RMM:   8    -0.211824300718E+03    0.33525E-02   -0.57680E-03  7850   0.171E-01    0.401E-01
RMM:   9    -0.211823633625E+03    0.66709E-03   -0.16906E-03  7506   0.102E-01    0.225E-01
RMM:  10    -0.211823432627E+03    0.20100E-03   -0.44309E-04  7731   0.504E-02    0.113E-01
RMM:  11    -0.211823393534E+03    0.39092E-04   -0.23715E-04  8277   0.315E-02    0.784E-02
RMM:  12    -0.211823327517E+03    0.66017E-04   -0.14445E-04  7939   0.259E-02    0.297E-02
RMM:  13    -0.211823304293E+03    0.23224E-04   -0.39891E-05  8445   0.128E-02    0.114E-02
RMM:  14    -0.211823296756E+03    0.75367E-05   -0.15564E-05  8786   0.646E-03    0.816E-03
RMM:  15    -0.211823291832E+03    0.49244E-05   -0.65743E-06  7987   0.405E-03    0.631E-03
RMM:  16    -0.211823289159E+03    0.26734E-05   -0.43119E-06  7427   0.341E-03    0.196E-03
RMM:  17    -0.211823289204E+03   -0.45169E-07   -0.14823E-06  6091   0.169E-03    0.140E-03
RMM:  18    -0.211823289216E+03   -0.11922E-07   -0.65302E-07  4762   0.118E-03
   7 F= -.21182329E+03 E0= -.21182716E+03  d E =-.267511E+01  mag=    -0.0020
       N       E                     dE             d eps       ncg     rms          rms(c)
DAV:   1    -0.213140623730E+03   -0.13173E+01   -0.27935E+02  6912   0.493E+01    0.906E+00
RMM:   2    -0.214541628276E+03   -0.14010E+01   -0.11290E+01  6920   0.104E+01    0.115E+01
RMM:   3    -0.213482432992E+03    0.10592E+01   -0.12131E+00  7012   0.338E+00    0.726E+00
RMM:   4    -0.213285482095E+03    0.19695E+00   -0.34257E-01  7318   0.153E+00    0.458E+00
RMM:   5    -0.213207443616E+03    0.78038E-01   -0.17149E-01  7148   0.102E+00    0.372E+00
RMM:   6    -0.213219688700E+03   -0.12245E-01   -0.13738E-01  7094   0.918E-01    0.321E+00
RMM:   7    -0.213158481858E+03    0.61207E-01   -0.60228E-02  7148   0.630E-01    0.149E+00
RMM:   8    -0.213144933734E+03    0.13548E-01   -0.19638E-02  7208   0.359E-01    0.560E-01
RMM:   9    -0.213144231346E+03    0.70239E-03   -0.70677E-03  7450   0.194E-01    0.293E-01
RMM:  10    -0.213144139170E+03    0.92176E-04   -0.16686E-03  8641   0.850E-02    0.159E-01
RMM:  11    -0.213144118032E+03    0.21139E-04   -0.63329E-04  8932   0.467E-02    0.781E-02
RMM:  12    -0.213144039493E+03    0.78539E-04   -0.29843E-04  9161   0.304E-02    0.311E-02
RMM:  13    -0.213143998224E+03    0.41268E-04   -0.12153E-04  9021   0.174E-02    0.212E-02
RMM:  14    -0.213143986834E+03    0.11391E-04   -0.55877E-05  9789   0.975E-03    0.107E-02
RMM:  15    -0.213143976787E+03    0.10047E-04   -0.30669E-05  8877   0.778E-03    0.777E-03
RMM:  16    -0.213143975062E+03    0.17245E-05   -0.15076E-05  8895   0.508E-03    0.254E-03
RMM:  17    -0.213143975513E+03   -0.45076E-06   -0.65905E-06  7530   0.274E-03    0.179E-03
RMM:  18    -0.213143975777E+03   -0.26350E-06   -0.31721E-06  5661   0.188E-03    0.852E-04
RMM:  19    -0.213143975953E+03   -0.17628E-06   -0.15891E-06  5221   0.146E-03    0.737E-04
RMM:  20    -0.213143976052E+03   -0.99328E-07   -0.98372E-07  4885   0.116E-03
   8 F= -.21314398E+03 E0= -.21314555E+03  d E =-.132069E+01  mag=    -0.0009
       N       E                     dE             d eps       ncg     rms          rms(c)
DAV:   1    -0.213495001459E+03   -0.35103E+00   -0.18438E+02  6912   0.399E+01    0.794E+00
RMM:   2    -0.214380395382E+03   -0.88539E+00   -0.71062E+00  6912   0.830E+00    0.957E+00
RMM:   3    -0.213648545908E+03    0.73185E+00   -0.81692E-01  6977   0.279E+00    0.619E+00
RMM:   4    -0.213521393415E+03    0.12715E+00   -0.25314E-01  7276   0.133E+00    0.377E+00
RMM:   5    -0.213446482406E+03    0.74911E-01   -0.12368E-01  7212   0.882E-01    0.272E+00
RMM:   6    -0.213453878371E+03   -0.73960E-02   -0.75828E-02  7204   0.684E-01    0.259E+00
RMM:   7    -0.213416652099E+03    0.37226E-01   -0.33511E-02  7168   0.464E-01    0.103E+00
RMM:   8    -0.213409864189E+03    0.67879E-02   -0.10467E-02  7264   0.263E-01    0.415E-01
RMM:   9    -0.213409080607E+03    0.78358E-03   -0.39833E-03  7694   0.143E-01    0.223E-01
RMM:  10    -0.213408789399E+03    0.29121E-03   -0.99051E-04  8719   0.658E-02    0.111E-01
RMM:  11    -0.213408689533E+03    0.99866E-04   -0.40696E-04  8752   0.375E-02    0.401E-02
RMM:  12    -0.213408657846E+03    0.31688E-04   -0.16605E-04  9475   0.203E-02    0.192E-02
RMM:  13    -0.213408649095E+03    0.87504E-05   -0.74801E-05  9819   0.114E-02    0.119E-02
RMM:  14    -0.213408644558E+03    0.45371E-05   -0.35264E-05  9459   0.768E-03    0.712E-03
RMM:  15    -0.213408642152E+03    0.24057E-05   -0.18528E-05  9091   0.563E-03    0.378E-03
RMM:  16    -0.213408642358E+03   -0.20578E-06   -0.90222E-06  8597   0.353E-03    0.241E-03
RMM:  17    -0.213408642662E+03   -0.30444E-06   -0.39050E-06  5721   0.210E-03    0.144E-03
RMM:  18    -0.213408642863E+03   -0.20085E-06   -0.22055E-06  5577   0.174E-03    0.593E-04
RMM:  19    -0.213408642975E+03   -0.11211E-06   -0.98421E-07  4820   0.128E-03    0.673E-04
RMM:  20    -0.213408643044E+03   -0.69031E-07   -0.72413E-07  4943   0.106E-03
   9 F= -.21340864E+03 E0= -.21340748E+03  d E =-.158535E+01  mag=    -0.0002
       N       E                     dE             d eps       ncg     rms          rms(c)
DAV:   1    -0.214068271942E+03   -0.65963E+00   -0.15534E+02  6928   0.356E+01    0.754E+00
RMM:   2    -0.214834234087E+03   -0.76596E+00   -0.58864E+00  6912   0.794E+00    0.902E+00
RMM:   3    -0.214250631534E+03    0.58360E+00   -0.62143E-01  7006   0.247E+00    0.433E+00
RMM:   4    -0.214202266889E+03    0.48365E-01   -0.23698E-01  7253   0.126E+00    0.447E+00
RMM:   5    -0.214111881191E+03    0.90386E-01   -0.81598E-02  7199   0.783E-01    0.224E+00
RMM:   6    -0.214126770466E+03   -0.14889E-01   -0.71285E-02  7218   0.675E-01    0.222E+00
RMM:   7    -0.214092369450E+03    0.34401E-01   -0.23725E-02  7226   0.398E-01    0.730E-01
RMM:   8    -0.214089511594E+03    0.28579E-02   -0.66741E-03  7525   0.206E-01    0.385E-01
RMM:   9    -0.214088600153E+03    0.91144E-03   -0.18825E-03  7793   0.104E-01    0.189E-01
RMM:  10    -0.214088512714E+03    0.87440E-04   -0.62902E-04  8403   0.565E-02    0.132E-01
RMM:  11    -0.214088487099E+03    0.25615E-04   -0.24601E-04  8329   0.358E-02    0.616E-02
RMM:  12    -0.214088461809E+03    0.25290E-04   -0.10210E-04  9378   0.191E-02    0.191E-02
RMM:  13    -0.214088458888E+03    0.29206E-05   -0.32041E-05  9945   0.921E-03    0.939E-03
RMM:  14    -0.214088458089E+03    0.79886E-06   -0.14117E-05  9753   0.544E-03    0.461E-03
RMM:  15    -0.214088458024E+03    0.65134E-07   -0.63782E-06  8746   0.341E-03    0.255E-03
RMM:  16    -0.214088458122E+03   -0.98127E-07   -0.25509E-06  5966   0.200E-03    0.159E-03
RMM:  17    -0.214088458109E+03    0.13275E-07   -0.16920E-06  5907   0.178E-03    0.618E-04
RMM:  18    -0.214088458175E+03   -0.66197E-07   -0.57504E-07  4775   0.129E-03
  10 F= -.21408846E+03 E0= -.21408571E+03  d E =-.679815E+00  mag=    -0.0000
       N       E                     dE             d eps       ncg     rms          rms(c)
DAV:   1    -0.214099852811E+03   -0.11395E-01   -0.34417E+00  7296   0.531E+00    0.115E+00
RMM:   2    -0.214119021128E+03   -0.19168E-01   -0.12640E-01  6912   0.116E+00    0.169E+00
RMM:   3    -0.214104165376E+03    0.14856E-01   -0.13749E-02  6980   0.363E-01    0.695E-01
RMM:   4    -0.214102088680E+03    0.20767E-02   -0.59757E-03  7138   0.211E-01    0.611E-01
RMM:   5    -0.214100592843E+03    0.14958E-02   -0.19910E-03  7182   0.125E-01    0.230E-01
RMM:   6    -0.214100513608E+03    0.79235E-04   -0.97095E-04  7372   0.752E-02    0.227E-01
RMM:   7    -0.214100227059E+03    0.28655E-03   -0.30640E-04  7246   0.448E-02    0.914E-02
RMM:   8    -0.214100202857E+03    0.24201E-04   -0.10778E-04  7510   0.251E-02    0.832E-02
RMM:   9    -0.214100170086E+03    0.32771E-04   -0.40410E-05  7447   0.158E-02    0.335E-02
RMM:  10    -0.214100167549E+03    0.25372E-05   -0.15558E-05  8008   0.955E-03    0.216E-02
RMM:  11    -0.214100167382E+03    0.16765E-06   -0.51353E-06  8219   0.533E-03    0.789E-03
RMM:  12    -0.214100167183E+03    0.19902E-06   -0.18341E-06  8024   0.241E-03    0.285E-03
RMM:  13    -0.214100167171E+03    0.11260E-07   -0.50060E-07  4763   0.127E-03
  11 F= -.21410017E+03 E0= -.21409719E+03  d E =-.691524E+00  mag=    -0.0000
       N       E                     dE             d eps       ncg     rms          rms(c)
DAV:   1    -0.214326393724E+03   -0.22623E+00   -0.42752E+01  6912   0.195E+01    0.318E+00
RMM:   2    -0.214381683747E+03   -0.55290E-01   -0.12595E+00  6912   0.353E+00    0.309E+00
RMM:   3    -0.214377595768E+03    0.40880E-02   -0.11924E-01  7136   0.112E+00    0.281E+00
RMM:   4    -0.214340324230E+03    0.37272E-01   -0.62819E-02  6912   0.689E-01    0.162E+00
RMM:   5    -0.214340651473E+03   -0.32724E-03   -0.33425E-02  6962   0.519E-01    0.140E+00
RMM:   6    -0.214335301520E+03    0.53500E-02   -0.14414E-02  7178   0.300E-01    0.115E+00
RMM:   7    -0.214328547713E+03    0.67538E-02   -0.52572E-03  7038   0.187E-01    0.456E-01
RMM:   8    -0.214327847927E+03    0.69979E-03   -0.26233E-03  7082   0.132E-01    0.411E-01
RMM:   9    -0.214326776863E+03    0.10711E-02   -0.83985E-04  7052   0.760E-02    0.129E-01
RMM:  10    -0.214326684582E+03    0.92281E-04   -0.17014E-04  8283   0.319E-02    0.686E-02
RMM:  11    -0.214326663410E+03    0.21173E-04   -0.59242E-05  9060   0.158E-02    0.234E-02
RMM:  12    -0.214326655723E+03    0.76864E-05   -0.15398E-05  9241   0.843E-03    0.942E-03
RMM:  13    -0.214326653901E+03    0.18228E-05   -0.49016E-06  9804   0.394E-03    0.817E-03
RMM:  14    -0.214326652623E+03    0.12771E-05   -0.15841E-06  8022   0.236E-03    0.508E-03
RMM:  15    -0.214326651630E+03    0.99301E-06   -0.88253E-07  7214   0.185E-03    0.950E-04
RMM:  16    -0.214326651586E+03    0.44245E-07   -0.11978E-07  4541   0.993E-04
  12 F= -.21432665E+03 E0= -.21432467E+03  d E =-.226484E+00  mag=    -0.0000
       N       E                     dE             d eps       ncg     rms          rms(c)
DAV:   1    -0.214371276534E+03   -0.44625E-01   -0.19975E+01  6912   0.133E+01    0.211E+00
RMM:   2    -0.214396804493E+03   -0.25528E-01   -0.58904E-01  6912   0.241E+00    0.205E+00
RMM:   3    -0.214396178185E+03    0.62631E-03   -0.55509E-02  7124   0.768E-01    0.194E+00
RMM:   4    -0.214378201865E+03    0.17976E-01   -0.28392E-02  6914   0.464E-01    0.112E+00
RMM:   5    -0.214378537308E+03   -0.33544E-03   -0.14022E-02  6966   0.337E-01    0.975E-01
RMM:   6    -0.214376172140E+03    0.23652E-02   -0.70819E-03  7206   0.209E-01    0.823E-01
RMM:   7    -0.214372585716E+03    0.35864E-02   -0.25189E-03  7024   0.131E-01    0.279E-01
RMM:   8    -0.214372395615E+03    0.19010E-03   -0.12086E-03  7132   0.878E-02    0.296E-01
RMM:   9    -0.214371863183E+03    0.53243E-03   -0.38386E-04  7053   0.510E-02    0.889E-02
RMM:  10    -0.214371819171E+03    0.44013E-04   -0.81534E-05  8298   0.220E-02    0.498E-02
RMM:  11    -0.214371806957E+03    0.12213E-04   -0.28790E-05  9050   0.112E-02    0.164E-02
RMM:  12    -0.214371802926E+03    0.40308E-05   -0.72620E-06  9308   0.584E-03    0.660E-03
RMM:  13    -0.214371801958E+03    0.96829E-06   -0.22822E-06  8968   0.272E-03    0.587E-03
RMM:  14    -0.214371801246E+03    0.71167E-06   -0.76467E-07  6765   0.174E-03    0.326E-03
RMM:  15    -0.214371800792E+03    0.45414E-06   -0.37056E-07  5357   0.127E-03    0.632E-04
RMM:  16    -0.214371800794E+03   -0.16807E-08   -0.13076E-07  4388   0.889E-04
  13 F= -.21437180E+03 E0= -.21437063E+03  d E =-.271634E+00  mag=    -0.0000
       N       E                     dE             d eps       ncg     rms          rms(c)
DAV:   1    -0.214486215137E+03   -0.11441E+00   -0.49665E+01  6912   0.215E+01    0.374E+00
RMM:   2    -0.214641810502E+03   -0.15560E+00   -0.14797E+00  6912   0.399E+00    0.452E+00
RMM:   3    -0.214558855709E+03    0.82955E-01   -0.15857E-01  7262   0.111E+00    0.319E+00
RMM:   4    -0.214520141622E+03    0.38714E-01   -0.50067E-02  6916   0.650E-01    0.180E+00
RMM:   5    -0.214528028274E+03   -0.78867E-02   -0.41831E-02  6978   0.554E-01    0.230E+00
RMM:   6    -0.214506693677E+03    0.21335E-01   -0.17779E-02  6964   0.355E-01    0.896E-01
RMM:   7    -0.214502948532E+03    0.37451E-02   -0.54962E-03  7076   0.195E-01    0.533E-01
RMM:   8    -0.214501349297E+03    0.15992E-02   -0.19140E-03  7144   0.109E-01    0.239E-01
RMM:   9    -0.214501067247E+03    0.28205E-03   -0.70557E-04  7132   0.683E-02    0.176E-01
RMM:  10    -0.214500970209E+03    0.97038E-04   -0.16552E-04  8497   0.319E-02    0.865E-02
RMM:  11    -0.214500957894E+03    0.12315E-04   -0.68033E-05  9665   0.162E-02    0.307E-02
RMM:  12    -0.214500954323E+03    0.35714E-05   -0.16931E-05  9942   0.806E-03    0.149E-02
RMM:  13    -0.214500953984E+03    0.33863E-06   -0.51917E-06 10155   0.354E-03    0.813E-03
RMM:  14    -0.214500954145E+03   -0.16144E-06   -0.20789E-06  8754   0.252E-03    0.238E-03
RMM:  15    -0.214500954062E+03    0.83794E-07   -0.42578E-07  5233   0.144E-03
  14 F= -.21450095E+03 E0= -.21450094E+03  d E =-.129153E+00  mag=    -0.0000
       N       E                     dE             d eps       ncg     rms          rms(c)
DAV:   1    -0.214504678748E+03   -0.37246E-02   -0.25346E+00  7040   0.487E+00    0.849E-01
RMM:   2    -0.214513031373E+03   -0.83526E-02   -0.73867E-02  6912   0.900E-01    0.104E+00
RMM:   3    -0.214508494224E+03    0.45371E-02   -0.80786E-03  7204   0.249E-01    0.760E-01
RMM:   4    -0.214506637742E+03    0.18565E-02   -0.26870E-03  6918   0.151E-01    0.463E-01
RMM:   5    -0.214506743268E+03   -0.10553E-03   -0.22592E-03  6978   0.130E-01    0.514E-01
RMM:   6    -0.214505819768E+03    0.92350E-03   -0.97555E-04  6964   0.833E-02    0.228E-01
RMM:   7    -0.214505523744E+03    0.29602E-03   -0.33482E-04  7040   0.472E-02    0.112E-01
RMM:   8    -0.214505466227E+03    0.57518E-04   -0.11989E-04  7086   0.273E-02    0.643E-02
RMM:   9    -0.214505438707E+03    0.27520E-04   -0.42093E-05  7092   0.164E-02    0.346E-02
RMM:  10    -0.214505436297E+03    0.24097E-05   -0.83723E-06  8632   0.692E-03    0.187E-02
RMM:  11    -0.214505436881E+03   -0.58410E-06   -0.30605E-06  9389   0.336E-03    0.665E-03
RMM:  12    -0.214505436708E+03    0.17318E-06   -0.76210E-07  6660   0.180E-03    0.352E-03
RMM:  13    -0.214505436725E+03   -0.17437E-07   -0.11793E-07  4299   0.106E-03
  15 F= -.21450544E+03 E0= -.21450572E+03  d E =-.133636E+00  mag=    -0.0000
       N       E                     dE             d eps       ncg     rms          rms(c)
DAV:   1    -0.214539648600E+03   -0.34212E-01   -0.54591E+01  6912   0.221E+01    0.255E+00
RMM:   2    -0.214686439287E+03   -0.14679E+00   -0.14298E+00  6912   0.384E+00    0.314E+00
RMM:   3    -0.214650388405E+03    0.36051E-01   -0.12184E-01  7354   0.110E+00    0.242E+00
RMM:   4    -0.214623184106E+03    0.27204E-01   -0.31544E-02  7074   0.478E-01    0.129E+00
RMM:   5    -0.214628255456E+03   -0.50713E-02   -0.21816E-02  7004   0.405E-01    0.165E+00
RMM:   6    -0.214614891362E+03    0.13364E-01   -0.11310E-02  6974   0.291E-01    0.327E-01
RMM:   7    -0.214614999807E+03   -0.10845E-03   -0.27945E-03  7262   0.131E-01    0.454E-01
RMM:   8    -0.214613774252E+03    0.12256E-02   -0.84481E-04  7206   0.698E-02    0.135E-01
RMM:   9    -0.214613732284E+03    0.41968E-04   -0.35553E-04  7434   0.467E-02    0.127E-01
RMM:  10    -0.214613661708E+03    0.70575E-04   -0.11760E-04  7794   0.271E-02    0.606E-02
RMM:  11    -0.214613645179E+03    0.16529E-04   -0.57041E-05  8801   0.164E-02    0.316E-02
RMM:  12    -0.214613635816E+03    0.93628E-05   -0.16614E-05  9031   0.899E-03    0.111E-02
RMM:  13    -0.214613634217E+03    0.15989E-05   -0.37835E-06  9415   0.364E-03    0.755E-03
RMM:  14    -0.214613632996E+03    0.12208E-05   -0.14024E-06  7948   0.213E-03    0.414E-03
RMM:  15    -0.214613632259E+03    0.73784E-06   -0.83560E-07  6997   0.176E-03    0.919E-04
RMM:  16    -0.214613632240E+03    0.18161E-07   -0.92553E-08  4460   0.957E-04
  16 F= -.21461363E+03 E0= -.21461601E+03  d E =-.108196E+00  mag=    -0.0000
       N       E                     dE             d eps       ncg     rms          rms(c)
DAV:   1    -0.214607171788E+03    0.64605E-02   -0.16955E+01  6912   0.123E+01    0.142E+00
RMM:   2    -0.214652024976E+03   -0.44853E-01   -0.44288E-01  6912   0.214E+00    0.172E+00
RMM:   3    -0.214641721962E+03    0.10303E-01   -0.37818E-02  7332   0.613E-01    0.137E+00
RMM:   4    -0.214632766921E+03    0.89550E-02   -0.94123E-03  7032   0.265E-01    0.695E-01
RMM:   5    -0.214634260372E+03   -0.14935E-02   -0.64955E-03  7010   0.220E-01    0.898E-01
RMM:   6    -0.214630295220E+03    0.39652E-02   -0.35402E-03  6992   0.159E-01    0.185E-01
RMM:   7    -0.214630284448E+03    0.10773E-04   -0.88501E-04  7308   0.738E-02    0.246E-01
RMM:   8    -0.214629918122E+03    0.36633E-03   -0.26040E-04  7178   0.394E-02    0.719E-02
RMM:   9    -0.214629906089E+03    0.12032E-04   -0.10604E-04  7386   0.255E-02    0.708E-02
RMM:  10    -0.214629882866E+03    0.23223E-04   -0.35086E-05  7898   0.146E-02    0.334E-02
RMM:  11    -0.214629877122E+03    0.57442E-05   -0.15961E-05  8952   0.858E-03    0.163E-02
RMM:  12    -0.214629874254E+03    0.28677E-05   -0.51317E-06  9083   0.479E-03    0.626E-03
RMM:  13    -0.214629873660E+03    0.59445E-06   -0.97072E-07  7250   0.204E-03    0.407E-03
RMM:  14    -0.214629873266E+03    0.39349E-06   -0.47621E-07  5489   0.130E-03    0.240E-03
RMM:  15    -0.214629873028E+03    0.23769E-06   -0.22143E-07  4774   0.110E-03    0.654E-04
RMM:  16    -0.214629873011E+03    0.17688E-07   -0.14711E-07  4245   0.843E-04
  17 F= -.21462987E+03 E0= -.21463341E+03  d E =-.124436E+00  mag=    -0.0000
       N       E                     dE             d eps       ncg     rms          rms(c)
DAV:   1    -0.214624353209E+03    0.55198E-02   -0.58028E+01  6912   0.222E+01    0.203E+00
RMM:   2    -0.214754361686E+03   -0.13001E+00   -0.14134E+00  6912   0.387E+00    0.200E+00
RMM:   3    -0.214756698708E+03   -0.23370E-02   -0.11288E-01  7820   0.103E+00    0.181E+00
RMM:   4    -0.214736757566E+03    0.19941E-01   -0.16421E-02  7314   0.327E-01    0.898E-01
RMM:   5    -0.214740126794E+03   -0.33692E-02   -0.10569E-02  7102   0.254E-01    0.104E+00
RMM:   6    -0.214735655992E+03    0.44708E-02   -0.75625E-03  7008   0.221E-01    0.606E-01
RMM:   7    -0.214734222961E+03    0.14330E-02   -0.31523E-03  7146   0.142E-01    0.376E-01
RMM:   8    -0.214733122343E+03    0.11006E-02   -0.75649E-04  7117   0.724E-02    0.108E-01
RMM:   9    -0.214733004618E+03    0.11772E-03   -0.19292E-04  7380   0.335E-02    0.734E-02
RMM:  10    -0.214732972440E+03    0.32178E-04   -0.10527E-04  7594   0.225E-02    0.462E-02
RMM:  11    -0.214732956683E+03    0.15758E-04   -0.56803E-05  7380   0.180E-02    0.178E-02
RMM:  12    -0.214732952935E+03    0.37474E-05   -0.78754E-06  8458   0.675E-03    0.843E-03
RMM:  13    -0.214732950585E+03    0.23502E-05   -0.44201E-06  7596   0.423E-03    0.310E-03
RMM:  14    -0.214732949700E+03    0.88483E-06   -0.10895E-06  6896   0.231E-03    0.135E-03
RMM:  15    -0.214732949410E+03    0.29055E-06   -0.43283E-07  5202   0.126E-03    0.979E-04
RMM:  16    -0.214732949287E+03    0.12242E-06   -0.19554E-07  4465   0.911E-04    0.639E-04
RMM:  17    -0.214732949240E+03    0.47279E-07   -0.10560E-07  4284   0.748E-04
  18 F= -.21473295E+03 E0= -.21473814E+03  d E =-.103076E+00  mag=    -0.0000
       N       E                     dE             d eps       ncg     rms          rms(c)
DAV:   1    -0.214656668001E+03    0.76281E-01   -0.58818E+01  6912   0.224E+01    0.206E+00
RMM:   2    -0.214787877606E+03   -0.13121E+00   -0.14349E+00  6912   0.391E+00    0.202E+00
RMM:   3    -0.214791770824E+03   -0.38932E-02   -0.11504E-01  7882   0.103E+00    0.183E+00
RMM:   4    -0.214770926007E+03    0.20845E-01   -0.16946E-02  7276   0.335E-01    0.919E-01
RMM:   5    -0.214774429071E+03   -0.35031E-02   -0.11419E-02  7044   0.267E-01    0.106E+00
RMM:   6    -0.214769357029E+03    0.50720E-02   -0.72075E-03  7016   0.214E-01    0.549E-01
RMM:   7    -0.214768030489E+03    0.13265E-02   -0.27875E-03  7242   0.131E-01    0.320E-01
RMM:   8    -0.214767175518E+03    0.85497E-03   -0.58587E-04  7168   0.642E-02    0.978E-02
RMM:   9    -0.214767083672E+03    0.91845E-04   -0.18421E-04  7504   0.316E-02    0.705E-02
RMM:  10    -0.214767056165E+03    0.27507E-04   -0.11045E-04  7472   0.236E-02    0.425E-02
RMM:  11    -0.214767042276E+03    0.13890E-04   -0.45807E-05  7406   0.163E-02    0.171E-02
RMM:  12    -0.214767038598E+03    0.36775E-05   -0.71161E-06  8565   0.615E-03    0.793E-03
RMM:  13    -0.214767036339E+03    0.22589E-05   -0.42289E-06  7558   0.415E-03    0.295E-03
RMM:  14    -0.214767035432E+03    0.90698E-06   -0.10999E-06  6880   0.229E-03    0.138E-03
RMM:  15    -0.214767035169E+03    0.26306E-06   -0.41578E-07  5120   0.122E-03    0.978E-04
RMM:  16    -0.214767035042E+03    0.12717E-06   -0.18750E-07  4464   0.905E-04    0.641E-04
RMM:  17    -0.214767034990E+03    0.52609E-07   -0.10980E-07  4280   0.758E-04
  19 F= -.21476703E+03 E0= -.21477312E+03  d E =-.137162E+00  mag=    -0.0000
       N       E                     dE             d eps       ncg     rms          rms(c)
DAV:   1    -0.214713998865E+03    0.53036E-01   -0.72769E+01  6912   0.242E+01    0.227E+00
RMM:   2    -0.214910504901E+03   -0.19651E+00   -0.17152E+00  6912   0.412E+00    0.305E+00
RMM:   3    -0.214874849558E+03    0.35655E-01   -0.13142E-01  7430   0.118E+00    0.166E+00
RMM:   4    -0.214860585042E+03    0.14265E-01   -0.19894E-02  7662   0.349E-01    0.893E-01
RMM:   5    -0.214861554351E+03   -0.96931E-03   -0.11113E-02  7324   0.253E-01    0.967E-01
RMM:   6    -0.214858593952E+03    0.29604E-02   -0.89070E-03  7128   0.236E-01    0.533E-01
RMM:   7    -0.214857460504E+03    0.11334E-02   -0.32363E-03  7248   0.141E-01    0.368E-01
RMM:   8    -0.214856467627E+03    0.99288E-03   -0.81205E-04  7566   0.710E-02    0.116E-01
RMM:   9    -0.214856344108E+03    0.12352E-03   -0.20164E-04  7585   0.338E-02    0.808E-02
RMM:  10    -0.214856294384E+03    0.49724E-04   -0.16748E-04  7458   0.294E-02    0.329E-02
RMM:  11    -0.214856292692E+03    0.16917E-05   -0.56090E-05  8005   0.184E-02    0.135E-02
RMM:  12    -0.214856290475E+03    0.22174E-05   -0.75151E-06  8675   0.583E-03    0.668E-03
RMM:  13    -0.214856289866E+03    0.60934E-06   -0.40335E-06  8183   0.408E-03    0.315E-03
RMM:  14    -0.214856289653E+03    0.21270E-06   -0.80017E-07  5815   0.189E-03    0.159E-03
RMM:  15    -0.214856289535E+03    0.11765E-06   -0.45934E-07  5073   0.134E-03    0.110E-03
RMM:  16    -0.214856289469E+03    0.65880E-07   -0.18625E-07  4619   0.105E-03
  20 F= -.21485629E+03 E0= -.21486204E+03  d E =-.892545E-01  mag=     0.0000
       N       E                     dE             d eps       ncg     rms          rms(c)
DAV:   1    -0.214826324596E+03    0.29965E-01   -0.23108E+01  6912   0.137E+01    0.125E+00
RMM:   2    -0.214889831537E+03   -0.63507E-01   -0.53291E-01  6912   0.230E+00    0.182E+00
RMM:   3    -0.214875095701E+03    0.14736E-01   -0.39176E-02  7348   0.653E-01    0.883E-01
RMM:   4    -0.214871521326E+03    0.35744E-02   -0.60566E-03  7824   0.189E-01    0.485E-01
RMM:   5    -0.214871944385E+03   -0.42306E-03   -0.38028E-03  7332   0.146E-01    0.500E-01
RMM:   6    -0.214870564147E+03    0.13802E-02   -0.26325E-03  7134   0.127E-01    0.149E-01
RMM:   7    -0.214870528418E+03    0.35730E-04   -0.64744E-04  7604   0.628E-02    0.151E-01
RMM:   8    -0.214870374875E+03    0.15354E-03   -0.13494E-04  7990   0.276E-02    0.656E-02
RMM:   9    -0.214870342806E+03    0.32069E-04   -0.56977E-05  7662   0.178E-02    0.441E-02
RMM:  10    -0.214870328936E+03    0.13870E-04   -0.52311E-05  7384   0.167E-02    0.154E-02
RMM:  11    -0.214870328215E+03    0.72097E-06   -0.12942E-05  8138   0.880E-03    0.658E-03
RMM:  12    -0.214870327549E+03    0.66606E-06   -0.19952E-06  8108   0.287E-03    0.351E-03
RMM:  13    -0.214870327303E+03    0.24655E-06   -0.13172E-06  7350   0.240E-03    0.175E-03
RMM:  14    -0.214870327216E+03    0.86391E-07   -0.23597E-07  4618   0.124E-03
  21 F= -.21487033E+03 E0= -.21487529E+03  d E =-.103292E+00  mag=     0.0000
       N       E                     dE             d eps       ncg     rms          rms(c)
DAV:   1    -0.214853035740E+03    0.17292E-01   -0.43808E+01  6912   0.195E+01    0.166E+00
RMM:   2    -0.214951993869E+03   -0.98958E-01   -0.10679E+00  6912   0.328E+00    0.173E+00
RMM:   3    -0.214946753511E+03    0.52404E-02   -0.62622E-02  7595   0.861E-01    0.111E+00
RMM:   4    -0.214946031337E+03    0.72217E-03   -0.13392E-02  7496   0.294E-01    0.120E+00
RMM:   5    -0.214944610040E+03    0.14213E-02   -0.68690E-03  7412   0.201E-01    0.991E-01
RMM:   6    -0.214940424114E+03    0.41859E-02   -0.70268E-03  7134   0.207E-01    0.262E-01
RMM:   7    -0.214940080206E+03    0.34391E-03   -0.15771E-03  7254   0.108E-01    0.226E-01
RMM:   8    -0.214939823134E+03    0.25707E-03   -0.43740E-04  8118   0.483E-02    0.142E-01
RMM:   9    -0.214939706925E+03    0.11621E-03   -0.11313E-04  7867   0.256E-02    0.600E-02
RMM:  10    -0.214939676661E+03    0.30264E-04   -0.10493E-04  7588   0.232E-02    0.423E-02
RMM:  11    -0.214939669017E+03    0.76439E-05   -0.61175E-05  7404   0.196E-02    0.125E-02
RMM:  12    -0.214939667730E+03    0.12869E-05   -0.62923E-06  8301   0.629E-03    0.594E-03
RMM:  13    -0.214939667472E+03    0.25813E-06   -0.29553E-06  8036   0.313E-03    0.364E-03
RMM:  14    -0.214939667403E+03    0.68845E-07   -0.78306E-07  5866   0.176E-03
  22 F= -.21493967E+03 E0= -.21494424E+03  d E =-.693402E-01  mag=     0.0000
       N       E                     dE             d eps       ncg     rms          rms(c)
DAV:   1    -0.214915306441E+03    0.24361E-01   -0.19188E+01  6912   0.129E+01    0.111E+00
RMM:   2    -0.214958146297E+03   -0.42840E-01   -0.46162E-01  6912   0.216E+00    0.115E+00
RMM:   3    -0.214955755160E+03    0.23911E-02   -0.27099E-02  7556   0.566E-01    0.743E-01
RMM:   4    -0.214955401214E+03    0.35395E-03   -0.57821E-03  7498   0.193E-01    0.784E-01
RMM:   5    -0.214955023183E+03    0.37803E-03   -0.31487E-03  7422   0.135E-01    0.667E-01
RMM:   6    -0.214952952218E+03    0.20710E-02   -0.30520E-03  7138   0.137E-01    0.158E-01
RMM:   7    -0.214952729015E+03    0.22320E-03   -0.67135E-04  7300   0.701E-02    0.847E-02
RMM:   8    -0.214952684178E+03    0.44838E-04   -0.13539E-04  8650   0.259E-02    0.527E-02
RMM:   9    -0.214952671552E+03    0.12626E-04   -0.37505E-05  8808   0.128E-02    0.481E-02
RMM:  10    -0.214952660021E+03    0.11531E-04   -0.29044E-05  7878   0.125E-02    0.277E-02
RMM:  11    -0.214952656821E+03    0.31996E-05   -0.24167E-05  7412   0.118E-02    0.856E-03
RMM:  12    -0.214952656158E+03    0.66309E-06   -0.28548E-06  7711   0.436E-03    0.388E-03
RMM:  13    -0.214952656092E+03    0.66775E-07   -0.11738E-06  7342   0.201E-03    0.250E-03
RMM:  14    -0.214952656072E+03    0.19394E-07   -0.35658E-07  4732   0.123E-03
  23 F= -.21495266E+03 E0= -.21495683E+03  d E =-.823289E-01  mag=     0.0000
       N       E                     dE             d eps       ncg     rms          rms(c)
DAV:   1    -0.214967418650E+03   -0.14763E-01   -0.14681E+01  6912   0.111E+01    0.150E+00
RMM:   2    -0.215002458466E+03   -0.35040E-01   -0.42746E-01  6918   0.207E+00    0.170E+00
RMM:   3    -0.214989736268E+03    0.12722E-01   -0.37827E-02  7128   0.656E-01    0.129E+00
RMM:   4    -0.214981788188E+03    0.79481E-02   -0.10900E-02  7060   0.283E-01    0.495E-01
RMM:   5    -0.214981843425E+03   -0.55237E-04   -0.80855E-03  7084   0.241E-01    0.619E-01
RMM:   6    -0.214980203123E+03    0.16403E-02   -0.28046E-03  7240   0.137E-01    0.272E-01
RMM:   7    -0.214979771075E+03    0.43205E-03   -0.90144E-04  7652   0.734E-02    0.130E-01
RMM:   8    -0.214979694250E+03    0.76825E-04   -0.25283E-04  8086   0.370E-02    0.996E-02
RMM:   9    -0.214979669861E+03    0.24389E-04   -0.80988E-05  8698   0.212E-02    0.699E-02
RMM:  10    -0.214979653339E+03    0.16522E-04   -0.36583E-05  8648   0.147E-02    0.332E-02
RMM:  11    -0.214979652704E+03    0.63548E-06   -0.13631E-05  9370   0.784E-03    0.140E-02
RMM:  12    -0.214979651389E+03    0.13151E-05   -0.42617E-06  9521   0.420E-03    0.530E-03
RMM:  13    -0.214979651213E+03    0.17536E-06   -0.12407E-06  7339   0.203E-03    0.321E-03
RMM:  14    -0.214979651197E+03    0.16054E-07   -0.73761E-07  6215   0.164E-03
  24 F= -.21497965E+03 E0= -.21498437E+03  d E =-.269951E-01  mag=     0.0000
       N       E                     dE             d eps       ncg     rms          rms(c)
DAV:   1    -0.214979736892E+03   -0.85679E-04   -0.14449E-01  7232   0.111E+00    0.147E-01
RMM:   2    -0.214980089566E+03   -0.35267E-03   -0.41767E-03  6914   0.204E-01    0.176E-01
RMM:   3    -0.214979951848E+03    0.13772E-03   -0.36787E-04  7120   0.654E-02    0.126E-01
RMM:   4    -0.214979879230E+03    0.72617E-04   -0.11160E-04  7072   0.284E-02    0.516E-02
RMM:   5    -0.214979879842E+03   -0.61198E-06   -0.82741E-05  7056   0.245E-02    0.634E-02
RMM:   6    -0.214979863616E+03    0.16226E-04   -0.30070E-05  7220   0.142E-02    0.275E-02
RMM:   7    -0.214979859390E+03    0.42265E-05   -0.94427E-06  7532   0.755E-03    0.119E-02
RMM:   8    -0.214979859289E+03    0.10096E-06   -0.27129E-06  7834   0.380E-03    0.104E-02
RMM:   9    -0.214979859131E+03    0.15785E-06   -0.80937E-07  6447   0.214E-03    0.706E-03
RMM:  10    -0.214979859174E+03   -0.43496E-07   -0.35899E-07  4921   0.164E-03
  25 F= -.21497986E+03 E0= -.21498461E+03  d E =-.272031E-01  mag=     0.0000
       N       E                     dE             d eps       ncg     rms          rms(c)
DAV:   1    -0.214983511378E+03   -0.36522E-02   -0.69311E+00  6912   0.798E+00    0.103E+00
RMM:   2    -0.215001753414E+03   -0.18242E-01   -0.19310E-01  6914   0.143E+00    0.115E+00
RMM:   3    -0.214997273970E+03    0.44794E-02   -0.14960E-02  7638   0.378E-01    0.750E-01
RMM:   4    -0.214994153325E+03    0.31206E-02   -0.43348E-03  7151   0.182E-01    0.458E-01
RMM:   5    -0.214994461414E+03   -0.30809E-03   -0.29940E-03  7312   0.146E-01    0.359E-01
RMM:   6    -0.214993629994E+03    0.83142E-03   -0.12015E-03  7266   0.913E-02    0.180E-01
RMM:   7    -0.214993535636E+03    0.94358E-04   -0.35602E-04  7308   0.494E-02    0.165E-01
RMM:   8    -0.214993378090E+03    0.15755E-03   -0.14102E-04  7348   0.293E-02    0.592E-02
RMM:   9    -0.214993361646E+03    0.16444E-04   -0.48264E-05  7526   0.191E-02    0.292E-02
RMM:  10    -0.214993357730E+03    0.39159E-05   -0.16142E-05  8265   0.985E-03    0.150E-02
RMM:  11    -0.214993356296E+03    0.14339E-05   -0.53805E-06  9843   0.458E-03    0.429E-03
RMM:  12    -0.214993356193E+03    0.10321E-06   -0.17699E-06  7889   0.223E-03    0.222E-03
RMM:  13    -0.214993356173E+03    0.20002E-07   -0.42717E-07  4866   0.134E-03
  26 F= -.21499336E+03 E0= -.21499841E+03  d E =-.134970E-01  mag=    -0.0000
       N       E                     dE             d eps       ncg     rms          rms(c)
DAV:   1    -0.214993340794E+03    0.15399E-04   -0.33855E-01  7024   0.176E+00    0.229E-01
RMM:   2    -0.214994225284E+03   -0.88449E-03   -0.94857E-03  6912   0.316E-01    0.256E-01
RMM:   3    -0.214994008301E+03    0.21698E-03   -0.73622E-04  7610   0.839E-02    0.166E-01
RMM:   4    -0.214993853620E+03    0.15468E-03   -0.21395E-04  7162   0.404E-02    0.102E-01
RMM:   5    -0.214993869074E+03   -0.15454E-04   -0.14667E-04  7326   0.320E-02    0.806E-02
RMM:   6    -0.214993825564E+03    0.43511E-04   -0.59905E-05  7276   0.203E-02    0.398E-02
RMM:   7    -0.214993821128E+03    0.44357E-05   -0.17701E-05  7344   0.110E-02    0.364E-02
RMM:   8    -0.214993813315E+03    0.78126E-05   -0.69646E-06  7392   0.646E-03    0.129E-02
RMM:   9    -0.214993812263E+03    0.10526E-05   -0.24210E-06  7436   0.425E-03    0.644E-03
RMM:  10    -0.214993811844E+03    0.41843E-06   -0.77940E-07  6088   0.219E-03    0.337E-03
RMM:  11    -0.214993811603E+03    0.24179E-06   -0.24805E-07  4848   0.137E-03    0.138E-03
RMM:  12    -0.214993811587E+03    0.16025E-07   -0.10810E-07  4300   0.867E-04
  27 F= -.21499381E+03 E0= -.21499892E+03  d E =-.139524E-01  mag=    -0.0000
       N       E                     dE             d eps       ncg     rms          rms(c)
DAV:   1    -0.214998235378E+03   -0.44238E-02   -0.49067E+00  6912   0.672E+00    0.902E-01
RMM:   2    -0.215008357777E+03   -0.10122E-01   -0.13535E-01  6912   0.117E+00    0.869E-01
RMM:   3    -0.215007104134E+03    0.12536E-02   -0.10908E-02  7316   0.326E-01    0.789E-01
RMM:   4    -0.215003635107E+03    0.34690E-02   -0.35916E-03  7094   0.163E-01    0.331E-01
RMM:   5    -0.215003759895E+03   -0.12479E-03   -0.19731E-03  7258   0.118E-01    0.265E-01
RMM:   6    -0.215003469318E+03    0.29058E-03   -0.75231E-04  7242   0.713E-02    0.165E-01
RMM:   7    -0.215003333925E+03    0.13539E-03   -0.25333E-04  7444   0.409E-02    0.104E-01
RMM:   8    -0.215003276701E+03    0.57224E-04   -0.93177E-05  7544   0.244E-02    0.664E-02
RMM:   9    -0.215003256271E+03    0.20430E-04   -0.30353E-05  7892   0.138E-02    0.266E-02
RMM:  10    -0.215003255375E+03    0.89542E-06   -0.10401E-05  9032   0.740E-03    0.174E-02
RMM:  11    -0.215003256491E+03   -0.11160E-05   -0.41826E-06  9528   0.440E-03    0.509E-03
RMM:  12    -0.215003256635E+03   -0.14399E-06   -0.12746E-06  7859   0.215E-03    0.191E-03
RMM:  13    -0.215003256748E+03   -0.11256E-06   -0.28044E-07  4652   0.120E-03    0.137E-03
RMM:  14    -0.215003256785E+03   -0.37482E-07   -0.26031E-07  5013   0.986E-04
  28 F= -.21500326E+03 E0= -.21500864E+03  d E =-.944520E-02  mag=    -0.0000
       N       E                     dE             d eps       ncg     rms          rms(c)
DAV:   1    -0.215003321178E+03   -0.64431E-04   -0.42878E-01  6944   0.199E+00    0.266E-01
RMM:   2    -0.215004212142E+03   -0.89096E-03   -0.11796E-02  6912   0.344E-01    0.258E-01
RMM:   3    -0.215004097225E+03    0.11492E-03   -0.95151E-04  7337   0.961E-02    0.233E-01
RMM:   4    -0.215003796292E+03    0.30093E-03   -0.31574E-04  7090   0.483E-02    0.990E-02
RMM:   5    -0.215003812945E+03   -0.16653E-04   -0.17443E-04  7254   0.353E-02    0.800E-02
RMM:   6    -0.215003788903E+03    0.24042E-04   -0.67526E-05  7248   0.213E-02    0.525E-02
RMM:   7    -0.215003776216E+03    0.12687E-04   -0.23757E-05  7390   0.126E-02    0.328E-02
RMM:   8    -0.215003770575E+03    0.56407E-05   -0.86575E-06  7444   0.747E-03    0.193E-02
RMM:   9    -0.215003769033E+03    0.15421E-05   -0.27918E-06  7300   0.419E-03    0.786E-03
RMM:  10    -0.215003769182E+03   -0.14948E-06   -0.91487E-07  7104   0.223E-03    0.496E-03
RMM:  11    -0.215003769579E+03   -0.39614E-06   -0.30399E-07  4914   0.141E-03    0.152E-03
RMM:  12    -0.215003769629E+03   -0.50179E-07   -0.11565E-07  4268   0.104E-03
  29 F= -.21500377E+03 E0= -.21500923E+03  d E =-.995804E-02  mag=     0.0000
       N       E                     dE             d eps       ncg     rms          rms(c)
DAV:   1    -0.215006959304E+03   -0.31897E-02   -0.15086E+00  6912   0.370E+00    0.490E-01
RMM:   2    -0.215011062069E+03   -0.41028E-02   -0.43174E-02  6912   0.656E-01    0.709E-01
RMM:   3    -0.215008644734E+03    0.24173E-02   -0.35956E-03  7168   0.197E-01    0.300E-01
RMM:   4    -0.215008022249E+03    0.62249E-03   -0.12464E-03  6976   0.101E-01    0.241E-01
RMM:   5    -0.215008140941E+03   -0.11869E-03   -0.59269E-04  7104   0.691E-02    0.247E-01
RMM:   6    -0.215007862466E+03    0.27847E-03   -0.26640E-04  7192   0.421E-02    0.115E-01
RMM:   7    -0.215007805887E+03    0.56579E-04   -0.11080E-04  7280   0.275E-02    0.712E-02
RMM:   8    -0.215007766014E+03    0.39873E-04   -0.36831E-05  7476   0.146E-02    0.221E-02
RMM:   9    -0.215007762971E+03    0.30432E-05   -0.84491E-06  7774   0.784E-03    0.134E-02
RMM:  10    -0.215007761614E+03    0.13566E-05   -0.34939E-06  8324   0.446E-03    0.769E-03
RMM:  11    -0.215007760307E+03    0.13066E-05   -0.13568E-06  8119   0.255E-03    0.356E-03
RMM:  12    -0.215007760067E+03    0.24017E-06   -0.33137E-07  5092   0.124E-03    0.121E-03
RMM:  13    -0.215007759999E+03    0.68067E-07   -0.10019E-07  4286   0.879E-04
  30 F= -.21500776E+03 E0= -.21501332E+03  d E =-.399037E-02  mag=     0.0000
       N       E                     dE             d eps       ncg     rms          rms(c)
DAV:   1    -0.215008045934E+03   -0.28587E-03   -0.33479E-01  6976   0.174E+00    0.231E-01
RMM:   2    -0.215008954628E+03   -0.90869E-03   -0.96054E-03  6912   0.310E-01    0.332E-01
RMM:   3    -0.215008418308E+03    0.53632E-03   -0.79947E-04  7170   0.931E-02    0.141E-01
RMM:   4    -0.215008280990E+03    0.13732E-03   -0.27560E-04  6972   0.476E-02    0.113E-01
RMM:   5    -0.215008305157E+03   -0.24167E-04   -0.13138E-04  7102   0.325E-02    0.115E-01
RMM:   6    -0.215008243153E+03    0.62005E-04   -0.58028E-05  7204   0.195E-02    0.524E-02
RMM:   7    -0.215008231595E+03    0.11557E-04   -0.23624E-05  7274   0.127E-02    0.338E-02
RMM:   8    -0.215008222369E+03    0.92263E-05   -0.80898E-06  7476   0.685E-03    0.104E-02
RMM:   9    -0.215008221445E+03    0.92430E-06   -0.18440E-06  7372   0.367E-03    0.617E-03
RMM:  10    -0.215008220920E+03    0.52486E-06   -0.75759E-07  6404   0.215E-03    0.354E-03
RMM:  11    -0.215008220388E+03    0.53148E-06   -0.26871E-07  4806   0.136E-03    0.179E-03
RMM:  12    -0.215008220330E+03    0.58171E-07   -0.95922E-08  4172   0.968E-04
  31 F= -.21500822E+03 E0= -.21501382E+03  d E =-.445070E-02  mag=    -0.0000
       N       E                     dE             d eps       ncg     rms          rms(c)
DAV:   1    -0.215009604305E+03   -0.13839E-02   -0.14657E+00  6912   0.355E+00    0.390E-01
RMM:   2    -0.215016776177E+03   -0.71719E-02   -0.37622E-02  6912   0.624E-01    0.929E-01
RMM:   3    -0.215011897472E+03    0.48787E-02   -0.33486E-03  6976   0.196E-01    0.217E-01
RMM:   4    -0.215011594839E+03    0.30263E-03   -0.54669E-04  7710   0.582E-02    0.187E-01
RMM:   5    -0.215011658820E+03   -0.63980E-04   -0.36324E-04  7092   0.495E-02    0.195E-01
RMM:   6    -0.215011487446E+03    0.17137E-03   -0.24561E-04  7090   0.406E-02    0.928E-02
RMM:   7    -0.215011434719E+03    0.52727E-04   -0.68916E-05  7286   0.223E-02    0.410E-02
RMM:   8    -0.215011422157E+03    0.12562E-04   -0.15783E-05  7764   0.960E-03    0.177E-02
RMM:   9    -0.215011420089E+03    0.20679E-05   -0.47891E-06  7596   0.498E-03    0.130E-02
RMM:  10    -0.215011419036E+03    0.10533E-05   -0.42250E-06  7512   0.473E-03    0.799E-03
RMM:  11    -0.215011418549E+03    0.48703E-06   -0.66061E-07  6148   0.212E-03    0.250E-03
RMM:  12    -0.215011418472E+03    0.76674E-07   -0.14983E-07  4360   0.105E-03
  32 F= -.21501142E+03 E0= -.21501697E+03  d E =-.319814E-02  mag=    -0.0000
       N       E                     dE             d eps       ncg     rms          rms(c)
DAV:   1    -0.215011189820E+03    0.22873E-03   -0.80650E-01  6912   0.263E+00    0.289E-01
RMM:   2    -0.215015051875E+03   -0.38621E-02   -0.20657E-02  6912   0.462E-01    0.676E-01
RMM:   3    -0.215012446712E+03    0.26052E-02   -0.18296E-03  6984   0.145E-01    0.161E-01
RMM:   4    -0.215012289170E+03    0.15754E-03   -0.29903E-04  7732   0.430E-02    0.138E-01
RMM:   5    -0.215012326624E+03   -0.37454E-04   -0.20204E-04  7086   0.369E-02    0.145E-01
RMM:   6    -0.215012231675E+03    0.94949E-04   -0.13445E-04  7082   0.300E-02    0.693E-02
RMM:   7    -0.215012202101E+03    0.29574E-04   -0.38164E-05  7278   0.166E-02    0.299E-02
RMM:   8    -0.215012195329E+03    0.67726E-05   -0.87169E-06  7754   0.711E-03    0.130E-02
RMM:   9    -0.215012194150E+03    0.11788E-05   -0.26747E-06  7448   0.372E-03    0.956E-03
RMM:  10    -0.215012193545E+03    0.60515E-06   -0.23697E-06  7406   0.355E-03    0.592E-03
RMM:  11    -0.215012193258E+03    0.28644E-06   -0.33506E-07  4912   0.159E-03    0.180E-03
RMM:  12    -0.215012193217E+03    0.41346E-07   -0.99632E-08  4278   0.995E-04
  33 F= -.21501219E+03 E0= -.21501771E+03  d E =-.397289E-02  mag=    -0.0000
       N       E                     dE             d eps       ncg     rms          rms(c)
DAV:   1    -0.215011914804E+03    0.27845E-03   -0.19208E+00  6912   0.414E+00    0.420E-01
RMM:   2    -0.215019330512E+03   -0.74157E-02   -0.51802E-02  6912   0.722E-01    0.887E-01
RMM:   3    -0.215015237226E+03    0.40933E-02   -0.36474E-03  7186   0.208E-01    0.269E-01
RMM:   4    -0.215015096234E+03    0.14099E-03   -0.86382E-04  7114   0.781E-02    0.306E-01
RMM:   5    -0.215015075909E+03    0.20325E-04   -0.56817E-04  7000   0.645E-02    0.275E-01
RMM:   6    -0.215014772501E+03    0.30341E-03   -0.42626E-04  6970   0.563E-02    0.114E-01
RMM:   7    -0.215014698806E+03    0.73695E-04   -0.10506E-04  7264   0.273E-02    0.696E-02
RMM:   8    -0.215014673943E+03    0.24863E-04   -0.32610E-05  7622   0.136E-02    0.300E-02
RMM:   9    -0.215014667821E+03    0.61214E-05   -0.10651E-05  7270   0.817E-03    0.208E-02
RMM:  10    -0.215014664963E+03    0.28580E-05   -0.45865E-06  7642   0.594E-03    0.948E-03
RMM:  11    -0.215014663599E+03    0.13646E-05   -0.17038E-06  8316   0.282E-03    0.252E-03
RMM:  12    -0.215014663466E+03    0.13321E-06   -0.27137E-07  4980   0.118E-03    0.149E-03
RMM:  13    -0.215014663345E+03    0.12074E-06   -0.10583E-07  4248   0.833E-04    0.947E-04
RMM:  14    -0.215014663239E+03    0.10617E-06   -0.86448E-08  4189   0.723E-04    0.570E-04
RMM:  15    -0.215014663156E+03    0.82637E-07   -0.53893E-08  3968   0.610E-04
  34 F= -.21501466E+03 E0= -.21502021E+03  d E =-.246994E-02  mag=    -0.0000
       N       E                     dE             d eps       ncg     rms          rms(c)
DAV:   1    -0.215014589249E+03    0.73990E-04   -0.14290E-01  7008   0.113E+00    0.115E-01
RMM:   2    -0.215015138232E+03   -0.54898E-03   -0.38639E-03  6912   0.197E-01    0.239E-01
RMM:   3    -0.215014832977E+03    0.30525E-03   -0.27318E-04  7200   0.570E-02    0.729E-02
RMM:   4    -0.215014826425E+03    0.65526E-05   -0.63501E-05  7108   0.213E-02    0.823E-02
RMM:   5    -0.215014824711E+03    0.17137E-05   -0.42107E-05  7004   0.175E-02    0.750E-02
RMM:   6    -0.215014802273E+03    0.22438E-04   -0.31627E-05  6970   0.153E-02    0.317E-02
RMM:   7    -0.215014796134E+03    0.61390E-05   -0.79655E-06  7184   0.750E-03    0.183E-02
RMM:   8    -0.215014794224E+03    0.19107E-05   -0.24274E-06  7110   0.369E-03    0.813E-03
RMM:   9    -0.215014793643E+03    0.58093E-06   -0.79445E-07  6282   0.226E-03    0.561E-03
RMM:  10    -0.215014793167E+03    0.47545E-06   -0.32228E-07  4784   0.174E-03    0.238E-03
RMM:  11    -0.215014792958E+03    0.20935E-06   -0.10312E-07  4104   0.100E-03    0.109E-03
RMM:  12    -0.215014792967E+03   -0.96188E-08   -0.38802E-08  4012   0.666E-04
  35 F= -.21501479E+03 E0= -.21502034E+03  d E =-.259975E-02  mag=    -0.0000
       N       E                     dE             d eps       ncg     rms          rms(c)
DAV:   1    -0.215015033809E+03   -0.24085E-03   -0.82613E-01  6912   0.270E+00    0.268E-01
RMM:   2    -0.215017965404E+03   -0.29316E-02   -0.20476E-02  6912   0.464E-01    0.477E-01
RMM:   3    -0.215016495556E+03    0.14698E-02   -0.16233E-03  7104   0.132E-01    0.184E-01
RMM:   4    -0.215016259888E+03    0.23567E-03   -0.26494E-04  7464   0.416E-02    0.890E-02
RMM:   5    -0.215016260283E+03   -0.39487E-06   -0.14425E-04  6988   0.297E-02    0.974E-02
RMM:   6    -0.215016235043E+03    0.25240E-04   -0.78796E-05  6946   0.230E-02    0.678E-02
RMM:   7    -0.215016204457E+03    0.30586E-04   -0.30057E-05  6940   0.147E-02    0.225E-02
RMM:   8    -0.215016200403E+03    0.40534E-05   -0.62591E-06  7342   0.610E-03    0.102E-02
RMM:   9    -0.215016199917E+03    0.48623E-06   -0.16695E-06  6950   0.291E-03    0.757E-03
RMM:  10    -0.215016199575E+03    0.34220E-06   -0.98736E-07  6704   0.249E-03    0.349E-03
RMM:  11    -0.215016199474E+03    0.10093E-06   -0.17375E-07  4292   0.121E-03    0.101E-03
RMM:  12    -0.215016199458E+03    0.15811E-07   -0.46122E-08  4078   0.775E-04
  36 F= -.21501620E+03 E0= -.21502168E+03  d E =-.140649E-02  mag=    -0.0000
       N       E                     dE             d eps       ncg     rms          rms(c)
DAV:   1    -0.215015425451E+03    0.77402E-03   -0.94006E-01  6912   0.288E+00    0.286E-01
RMM:   2    -0.215018759322E+03   -0.33339E-02   -0.23301E-02  6912   0.495E-01    0.508E-01
RMM:   3    -0.215017089915E+03    0.16694E-02   -0.18470E-03  7104   0.140E-01    0.196E-01
RMM:   4    -0.215016821913E+03    0.26800E-03   -0.30176E-04  7479   0.443E-02    0.951E-02
RMM:   5    -0.215016826127E+03   -0.42145E-05   -0.16436E-04  6996   0.316E-02    0.108E-01
RMM:   6    -0.215016791554E+03    0.34573E-04   -0.89882E-05  6940   0.245E-02    0.707E-02
RMM:   7    -0.215016758054E+03    0.33500E-04   -0.34651E-05  6944   0.159E-02    0.233E-02
RMM:   8    -0.215016753586E+03    0.44681E-05   -0.70428E-06  7414   0.646E-03    0.106E-02
RMM:   9    -0.215016753082E+03    0.50371E-06   -0.18703E-06  7094   0.305E-03    0.804E-03
RMM:  10    -0.215016752700E+03    0.38222E-06   -0.11026E-06  6768   0.263E-03    0.372E-03
RMM:  11    -0.215016752588E+03    0.11178E-06   -0.20008E-07  4384   0.127E-03    0.106E-03
RMM:  12    -0.215016752569E+03    0.19372E-07   -0.49687E-08  4090   0.809E-04
  37 F= -.21501675E+03 E0= -.21502217E+03  d E =-.195960E-02  mag=    -0.0000
       N       E                     dE             d eps       ncg     rms          rms(c)
DAV:   1    -0.215016646608E+03    0.10598E-03   -0.89657E-01  6912   0.277E+00    0.350E-01
RMM:   2    -0.215019493192E+03   -0.28466E-02   -0.24013E-02  6914   0.494E-01    0.453E-01
RMM:   3    -0.215018300694E+03    0.11925E-02   -0.21611E-03  7104   0.150E-01    0.275E-01
RMM:   4    -0.215017865261E+03    0.43543E-03   -0.58180E-04  6967   0.686E-02    0.132E-01
RMM:   5    -0.215017824076E+03    0.41185E-04   -0.27507E-04  7066   0.447E-02    0.113E-01
RMM:   6    -0.215017754609E+03    0.69467E-04   -0.13383E-04  7107   0.299E-02    0.513E-02
RMM:   7    -0.215017754357E+03    0.25152E-06   -0.35666E-05  7252   0.153E-02    0.522E-02
RMM:   8    -0.215017737937E+03    0.16421E-04   -0.12777E-05  7266   0.864E-03    0.173E-02
RMM:   9    -0.215017735986E+03    0.19511E-05   -0.51658E-06  7146   0.595E-03    0.114E-02
RMM:  10    -0.215017734892E+03    0.10932E-05   -0.14698E-06  7136   0.314E-03    0.474E-03
RMM:  11    -0.215017734354E+03    0.53882E-06   -0.43766E-07  5522   0.142E-03    0.150E-03
RMM:  12    -0.215017734282E+03    0.71828E-07   -0.11805E-07  4184   0.900E-04
  38 F= -.21501773E+03 E0= -.21502308E+03  d E =-.981713E-03  mag=    -0.0000
       N       E                     dE             d eps       ncg     rms          rms(c)
DAV:   1    -0.215017725407E+03    0.89471E-05   -0.24069E-02  7072   0.454E-01    0.577E-02
RMM:   2    -0.215017801779E+03   -0.76373E-04   -0.64684E-04  6914   0.810E-02    0.740E-02
RMM:   3    -0.215017768292E+03    0.33488E-04   -0.58441E-05  7102   0.246E-02    0.454E-02
RMM:   4    -0.215017757866E+03    0.10426E-04   -0.15609E-05  6968   0.113E-02    0.215E-02
RMM:   5    -0.215017756462E+03    0.14039E-05   -0.73892E-06  7080   0.729E-03    0.184E-02
RMM:   6    -0.215017754294E+03    0.21675E-05   -0.36375E-06  7132   0.489E-03    0.865E-03
RMM:   7    -0.215017754105E+03    0.18925E-06   -0.93365E-07  6218   0.251E-03    0.820E-03
RMM:   8    -0.215017753571E+03    0.53387E-06   -0.32016E-07  4802   0.155E-03    0.263E-03
RMM:   9    -0.215017753425E+03    0.14575E-06   -0.14845E-07  4113   0.135E-03    0.214E-03
RMM:  10    -0.215017753324E+03    0.10102E-06   -0.57661E-08  3990   0.942E-04    0.690E-04
RMM:  11    -0.215017753256E+03    0.67990E-07   -0.25243E-08  3874   0.463E-04
  39 F= -.21501775E+03 E0= -.21502308E+03  d E =-.100069E-02  mag=    -0.0000
       N       E                     dE             d eps       ncg     rms          rms(c)
DAV:   1    -0.215017860325E+03   -0.10700E-03   -0.29699E-01  6912   0.166E+00    0.258E-01
RMM:   2    -0.215018508281E+03   -0.64796E-03   -0.87607E-03  6914   0.303E-01    0.244E-01
RMM:   3    -0.215018395933E+03    0.11235E-03   -0.82654E-04  7228   0.839E-02    0.227E-01
RMM:   4    -0.215018127761E+03    0.26817E-03   -0.28250E-04  6984   0.478E-02    0.113E-01
RMM:   5    -0.215018099821E+03    0.27939E-04   -0.16019E-04  7054   0.353E-02    0.960E-02
RMM:   6    -0.215018065902E+03    0.33920E-04   -0.68357E-05  7086   0.220E-02    0.424E-02
RMM:   7    -0.215018058884E+03    0.70172E-05   -0.23414E-05  7094   0.125E-02    0.325E-02
RMM:   8    -0.215018055475E+03    0.34096E-05   -0.79101E-06  7386   0.706E-03    0.206E-02
RMM:   9    -0.215018053242E+03    0.22333E-05   -0.31183E-06  7219   0.448E-03    0.876E-03
RMM:  10    -0.215018053307E+03   -0.65564E-07   -0.66900E-07  6385   0.203E-03
  40 F= -.21501805E+03 E0= -.21502335E+03  d E =-.300051E-03  mag=    -0.0000
       N       E                     dE             d eps       ncg     rms          rms(c)
DAV:   1    -0.215018061772E+03   -0.85305E-05   -0.66245E-03  7168   0.248E-01    0.391E-02
RMM:   2    -0.215018076139E+03   -0.14367E-04   -0.19645E-04  6914   0.455E-02    0.377E-02
RMM:   3    -0.215018072358E+03    0.37813E-05   -0.18579E-05  7218   0.125E-02    0.334E-02
RMM:   4    -0.215018066693E+03    0.56644E-05   -0.64213E-06  6954   0.721E-03    0.180E-02
RMM:   5    -0.215018065585E+03    0.11080E-05   -0.36646E-06  7018   0.538E-03    0.145E-02
RMM:   6    -0.215018064430E+03    0.11553E-05   -0.16006E-06  6908   0.340E-03    0.661E-03
RMM:   7    -0.215018064062E+03    0.36823E-06   -0.50831E-07  5432   0.194E-03    0.483E-03
RMM:   8    -0.215018063898E+03    0.16350E-06   -0.16061E-07  3998   0.133E-03    0.337E-03
RMM:   9    -0.215018063786E+03    0.11259E-06   -0.81469E-08  3684   0.108E-03    0.121E-03
RMM:  10    -0.215018063724E+03    0.62155E-07   -0.23413E-08  3532   0.582E-04
  41 F= -.21501806E+03 E0= -.21502337E+03  d E =-.310467E-03  mag=    -0.0000
       N       E                     dE             d eps       ncg     rms          rms(c)
DAV:   1    -0.215018064767E+03   -0.98176E-06   -0.14220E-01  6912   0.112E+00    0.127E-01
RMM:   2    -0.215018380000E+03   -0.31523E-03   -0.36117E-03  6912   0.200E-01    0.838E-02
RMM:   3    -0.215018409853E+03   -0.29853E-04   -0.30858E-04  7638   0.523E-02    0.112E-01
RMM:   4    -0.215018341595E+03    0.68258E-04   -0.47700E-05  7310   0.185E-02    0.455E-02
RMM:   5    -0.215018345620E+03   -0.40259E-05   -0.32720E-05  7270   0.141E-02    0.555E-02
RMM:   6    -0.215018327970E+03    0.17650E-04   -0.18326E-05  7196   0.109E-02    0.118E-02
RMM:   7    -0.215018327317E+03    0.65297E-06   -0.33108E-06  7848   0.458E-03    0.731E-03
RMM:   8    -0.215018327082E+03    0.23530E-06   -0.10347E-06  6701   0.237E-03    0.645E-03
RMM:   9    -0.215018326858E+03    0.22403E-06   -0.38922E-07  4900   0.162E-03    0.426E-03
RMM:  10    -0.215018326694E+03    0.16319E-06   -0.17516E-07  4236   0.125E-03    0.225E-03
RMM:  11    -0.215018326598E+03    0.96297E-07   -0.76917E-08  4150   0.918E-04
  42 F= -.21501833E+03 E0= -.21502365E+03  d E =-.262875E-03  mag=    -0.0000
       N       E                     dE             d eps       ncg     rms          rms(c)
DAV:   1    -0.215018275296E+03    0.51398E-04   -0.48830E-02  6912   0.657E-01    0.743E-02
RMM:   2    -0.215018383469E+03   -0.10817E-03   -0.12412E-03  6912   0.117E-01    0.494E-02
RMM:   3    -0.215018393679E+03   -0.10211E-04   -0.10657E-04  7636   0.307E-02    0.662E-02
RMM:   4    -0.215018369959E+03    0.23721E-04   -0.16518E-05  7310   0.108E-02    0.269E-02
RMM:   5    -0.215018371060E+03   -0.11013E-05   -0.11300E-05  7276   0.828E-03    0.323E-02
RMM:   6    -0.215018364877E+03    0.61832E-05   -0.63421E-06  7204   0.638E-03    0.695E-03
RMM:   7    -0.215018364594E+03    0.28304E-06   -0.11037E-06  6882   0.269E-03    0.423E-03
RMM:   8    -0.215018364474E+03    0.11938E-06   -0.32287E-07  4684   0.151E-03    0.360E-03
RMM:   9    -0.215018364385E+03    0.89050E-07   -0.14701E-07  4198   0.121E-03
  43 F= -.21501836E+03 E0= -.21502369E+03  d E =-.300662E-03  mag=     0.0000
       N       E                     dE             d eps       ncg     rms          rms(c)
DAV:   1    -0.215018273447E+03    0.91027E-04   -0.15630E-01  6912   0.113E+00    0.127E-01
RMM:   2    -0.215018635238E+03   -0.36179E-03   -0.38435E-03  6912   0.200E-01    0.117E-01
RMM:   3    -0.215018623418E+03    0.11821E-04   -0.31931E-04  7608   0.550E-02    0.940E-02
RMM:   4    -0.215018575810E+03    0.47607E-04   -0.54199E-05  7408   0.193E-02    0.602E-02
RMM:   5    -0.215018572185E+03    0.36251E-05   -0.30067E-05  7246   0.140E-02    0.467E-02
RMM:   6    -0.215018561831E+03    0.10354E-04   -0.24765E-05  7222   0.123E-02    0.167E-02
RMM:   7    -0.215018561565E+03    0.26585E-06   -0.66133E-06  7468   0.657E-03    0.131E-02
RMM:   8    -0.215018560677E+03    0.88851E-06   -0.17822E-06  7074   0.306E-03    0.881E-03
RMM:   9    -0.215018560233E+03    0.44403E-06   -0.64718E-07  5575   0.189E-03    0.300E-03
RMM:  10    -0.215018560265E+03   -0.31832E-07   -0.43323E-07  5177   0.169E-03
  44 F= -.21501856E+03 E0= -.21502391E+03  d E =-.195879E-03  mag=     0.0000
       N       E                     dE             d eps       ncg     rms          rms(c)
DAV:   1    -0.215018556857E+03    0.33759E-05   -0.43679E-03  7072   0.189E-01    0.212E-02
RMM:   2    -0.215018567251E+03   -0.10394E-04   -0.10823E-04  6912   0.335E-02    0.199E-02
RMM:   3    -0.215018566787E+03    0.46448E-06   -0.92085E-06  7666   0.924E-03    0.158E-02
RMM:   4    -0.215018565475E+03    0.13115E-05   -0.15699E-06  7026   0.324E-03    0.100E-02
RMM:   5    -0.215018565376E+03    0.99662E-07   -0.84763E-07  6138   0.238E-03
  45 F= -.21501857E+03 E0= -.21502393E+03  d E =-.200990E-03  mag=     0.0000
       N       E                     dE             d eps       ncg     rms          rms(c)
DAV:   1    -0.215018558252E+03    0.72233E-05   -0.90751E-02  6912   0.880E-01    0.815E-02
RMM:   2    -0.215018756027E+03   -0.19777E-03   -0.21573E-03  6912   0.149E-01    0.782E-02
RMM:   3    -0.215018759448E+03   -0.34208E-05   -0.15610E-04  7550   0.408E-02    0.675E-02
RMM:   4    -0.215018730045E+03    0.29403E-04   -0.26376E-05  7550   0.132E-02    0.327E-02
RMM:   5    -0.215018734969E+03   -0.49244E-05   -0.18905E-05  7230   0.108E-02    0.365E-02
RMM:   6    -0.215018726885E+03    0.80848E-05   -0.93375E-06  7206   0.764E-03    0.130E-02
RMM:   7    -0.215018726612E+03    0.27247E-06   -0.27333E-06  7258   0.412E-03    0.108E-02
RMM:   8    -0.215018725978E+03    0.63436E-06   -0.76869E-07  6108   0.206E-03    0.341E-03
RMM:   9    -0.215018725911E+03    0.66517E-07   -0.27566E-07  4630   0.139E-03
  46 F= -.21501873E+03 E0= -.21502406E+03  d E =-.160536E-03  mag=     0.0000
       N       E                     dE             d eps       ncg     rms          rms(c)
DAV:   1    -0.215018455949E+03    0.27003E-03   -0.16331E-01  6912   0.118E+00    0.109E-01
RMM:   2    -0.215018818187E+03   -0.36224E-03   -0.39087E-03  6912   0.201E-01    0.108E-01
RMM:   3    -0.215018819459E+03   -0.12715E-05   -0.28373E-04  7552   0.549E-02    0.906E-02
RMM:   4    -0.215018765539E+03    0.53920E-04   -0.46755E-05  7580   0.176E-02    0.426E-02
RMM:   5    -0.215018773450E+03   -0.79110E-05   -0.34921E-05  7202   0.147E-02    0.472E-02
RMM:   6    -0.215018760304E+03    0.13146E-04   -0.15943E-05  7214   0.101E-02    0.175E-02
RMM:   7    -0.215018759521E+03    0.78317E-06   -0.49536E-06  7522   0.551E-03    0.137E-02
RMM:   8    -0.215018758557E+03    0.96397E-06   -0.14361E-06  7154   0.272E-03    0.557E-03
RMM:   9    -0.215018758365E+03    0.19221E-06   -0.49294E-07  5194   0.160E-03    0.304E-03
RMM:  10    -0.215018758399E+03   -0.34663E-07   -0.40484E-07  5041   0.164E-03
  47 F= -.21501876E+03 E0= -.21502406E+03  d E =-.193024E-03  mag=     0.0000
       N       E                     dE             d eps       ncg     rms          rms(c)
DAV:   1    -0.215018735008E+03    0.23357E-04   -0.19555E-02  6944   0.408E-01    0.380E-02
RMM:   2    -0.215018777427E+03   -0.42420E-04   -0.46618E-04  6912   0.696E-02    0.364E-02
RMM:   3    -0.215018778380E+03   -0.95258E-06   -0.33637E-05  7520   0.189E-02    0.316E-02
RMM:   4    -0.215018771784E+03    0.65964E-05   -0.55653E-06  7404   0.614E-03    0.150E-02
RMM:   5    -0.215018772617E+03   -0.83367E-06   -0.40283E-06  7144   0.503E-03    0.162E-02
RMM:   6    -0.215018771019E+03    0.15980E-05   -0.18670E-06  6834   0.347E-03    0.619E-03
RMM:   7    -0.215018770851E+03    0.16850E-06   -0.55188E-07  5384   0.196E-03    0.455E-03
RMM:   8    -0.215018770713E+03    0.13822E-06   -0.15845E-07  4258   0.129E-03    0.227E-03
RMM:   9    -0.215018770672E+03    0.40680E-07   -0.71487E-08  3976   0.876E-04
  48 F= -.21501877E+03 E0= -.21502409E+03  d E =-.205296E-03  mag=     0.0000
       N       E                     dE             d eps       ncg     rms          rms(c)
DAV:   1    -0.215018804400E+03   -0.33687E-04   -0.69381E-02  6912   0.789E-01    0.868E-02
RMM:   2    -0.215018934301E+03   -0.12990E-03   -0.17840E-03  6912   0.139E-01    0.729E-02
RMM:   3    -0.215018944840E+03   -0.10539E-04   -0.15097E-04  7458   0.383E-02    0.926E-02
RMM:   4    -0.215018899013E+03    0.45827E-04   -0.29740E-05  7230   0.148E-02    0.332E-02
RMM:   5    -0.215018899620E+03   -0.60604E-06   -0.19624E-05  7130   0.115E-02    0.290E-02
RMM:   6    -0.215018894293E+03    0.53265E-05   -0.98505E-06  7166   0.812E-03    0.182E-02
RMM:   7    -0.215018892477E+03    0.18166E-05   -0.24677E-06  7112   0.399E-03    0.924E-03
RMM:   8    -0.215018891948E+03    0.52881E-06   -0.77167E-07  6236   0.207E-03    0.557E-03
RMM:   9    -0.215018891695E+03    0.25229E-06   -0.32862E-07  4944   0.162E-03    0.331E-03
RMM:  10    -0.215018891514E+03    0.18158E-06   -0.15528E-07  4196   0.124E-03    0.172E-03
RMM:  11    -0.215018891448E+03    0.66088E-07   -0.59419E-08  4040   0.909E-04
  49 F= -.21501889E+03 E0= -.21502420E+03  d E =-.120776E-03  mag=     0.0000
       N       E                     dE             d eps       ncg     rms          rms(c)
DAV:   1    -0.215018884965E+03    0.65490E-05   -0.23215E-02  6944   0.456E-01    0.502E-02
RMM:   2    -0.215018928322E+03   -0.43357E-04   -0.59829E-04  6912   0.805E-02    0.419E-02
RMM:   3    -0.215018932042E+03   -0.37203E-05   -0.50779E-05  7470   0.222E-02    0.538E-02
RMM:   4    -0.215018916540E+03    0.15502E-04   -0.10133E-05  7258   0.858E-03    0.193E-02
RMM:   5    -0.215018916670E+03   -0.13022E-06   -0.65546E-06  7138   0.663E-03    0.171E-02
RMM:   6    -0.215018914718E+03    0.19522E-05   -0.33699E-06  7158   0.473E-03    0.107E-02
RMM:   7    -0.215018914059E+03    0.65824E-06   -0.82026E-07  6146   0.235E-03    0.528E-03
RMM:   8    -0.215018913853E+03    0.20680E-06   -0.23611E-07  4540   0.138E-03    0.338E-03
RMM:   9    -0.215018913745E+03    0.10719E-06   -0.13192E-07  4106   0.124E-03    0.207E-03
RMM:  10    -0.215018913653E+03    0.92525E-07   -0.65243E-08  3994   0.862E-04
  50 F= -.21501891E+03 E0= -.21502422E+03  d E =-.142981E-03  mag=     0.0000
       N       E                     dE             d eps       ncg     rms          rms(c)
DAV:   1    -0.215018912299E+03    0.14461E-05   -0.30485E-03  7072   0.165E-01    0.182E-02
RMM:   2    -0.215018917890E+03   -0.55913E-05   -0.78592E-05  6912   0.291E-02    0.151E-02
RMM:   3    -0.215018918344E+03   -0.45374E-06   -0.67004E-06  7478   0.804E-03    0.195E-02
RMM:   4    -0.215018916290E+03    0.20540E-05   -0.13624E-06  7058   0.312E-03    0.701E-03
RMM:   5    -0.215018916219E+03    0.70937E-07   -0.84445E-07  6436   0.240E-03
  51 F= -.21501892E+03 E0= -.21502422E+03  d E =-.145547E-03  mag=     0.0000
       N       E                     dE             d eps       ncg     rms          rms(c)
DAV:   1    -0.215018947132E+03   -0.30842E-04   -0.31793E-02  6912   0.544E-01    0.693E-02
RMM:   2    -0.215019012747E+03   -0.65614E-04   -0.84050E-04  6912   0.948E-02    0.696E-02
RMM:   3    -0.215019000674E+03    0.12072E-04   -0.73303E-05  7278   0.253E-02    0.642E-02
RMM:   4    -0.215018976615E+03    0.24059E-04   -0.19124E-05  6974   0.123E-02    0.302E-02
RMM:   5    -0.215018977377E+03   -0.76113E-06   -0.10498E-05  6992   0.900E-03    0.253E-02
RMM:   6    -0.215018975031E+03    0.23460E-05   -0.53488E-06  6990   0.621E-03    0.140E-02
RMM:   7    -0.215018974706E+03    0.32505E-06   -0.17520E-06  6586   0.341E-03    0.108E-02
RMM:   8    -0.215018974055E+03    0.65010E-06   -0.59888E-07  5856   0.196E-03    0.336E-03
RMM:   9    -0.215018974099E+03   -0.43954E-07   -0.15938E-07  4238   0.125E-03
  52 F= -.21501897E+03 E0= -.21502428E+03  d E =-.578801E-04  mag=     0.0000
       N       E                     dE             d eps       ncg     rms          rms(c)
DAV:   1    -0.215018973200E+03    0.85572E-06   -0.13679E-02  6912   0.357E-01    0.454E-02
RMM:   2    -0.215019003918E+03   -0.30719E-04   -0.36339E-04  6912   0.623E-02    0.486E-02
RMM:   3    -0.215018995859E+03    0.80591E-05   -0.31313E-05  7260   0.166E-02    0.405E-02
RMM:   4    -0.215018986030E+03    0.98290E-05   -0.81763E-06  6976   0.811E-03    0.189E-02
RMM:   5    -0.215018987033E+03   -0.10028E-05   -0.47434E-06  7002   0.603E-03    0.167E-02
RMM:   6    -0.215018986145E+03    0.88809E-06   -0.24637E-06  6986   0.419E-03    0.102E-02
RMM:   7    -0.215018985877E+03    0.26795E-06   -0.77469E-07  5978   0.231E-03    0.644E-03
RMM:   8    -0.215018985653E+03    0.22436E-06   -0.23803E-07  4454   0.141E-03    0.249E-03
RMM:   9    -0.215018985686E+03   -0.33189E-07   -0.94514E-08  3960   0.113E-03
  53 F= -.21501899E+03 E0= -.21502430E+03  d E =-.694667E-04  mag=     0.0000
       N       E                     dE             d eps       ncg     rms          rms(c)
DAV:   1    -0.215019009102E+03   -0.23450E-04   -0.15651E-02  6912   0.372E-01    0.336E-02
RMM:   2    -0.215019046917E+03   -0.37815E-04   -0.36555E-04  6912   0.609E-02    0.402E-02
RMM:   3    -0.215019039567E+03    0.73501E-05   -0.26933E-05  7212   0.175E-02    0.267E-02
RMM:   4    -0.215019034919E+03    0.46479E-05   -0.56584E-06  7428   0.611E-03    0.125E-02
RMM:   5    -0.215019034182E+03    0.73724E-06   -0.21252E-06  6884   0.381E-03    0.102E-02
RMM:   6    -0.215019033459E+03    0.72346E-06   -0.17810E-06  7026   0.337E-03    0.543E-03
RMM:   7    -0.215019033300E+03    0.15904E-06   -0.32435E-07  4824   0.165E-03    0.390E-03
RMM:   8    -0.215019033186E+03    0.11324E-06   -0.94451E-08  4036   0.108E-03    0.212E-03
RMM:   9    -0.215019033133E+03    0.53296E-07   -0.51239E-08  3872   0.797E-04
  54 F= -.21501903E+03 E0= -.21502435E+03  d E =-.474472E-04  mag=     0.0000
       N       E                     dE             d eps       ncg     rms          rms(c)
DAV:   1    -0.215018894353E+03    0.13883E-03   -0.14087E-01  6912   0.112E+00    0.100E-01
RMM:   2    -0.215019232774E+03   -0.33842E-03   -0.32867E-03  6912   0.183E-01    0.119E-01
RMM:   3    -0.215019169952E+03    0.62822E-04   -0.24021E-04  7202   0.523E-02    0.796E-02
RMM:   4    -0.215019128062E+03    0.41890E-04   -0.50186E-05  7412   0.183E-02    0.371E-02
RMM:   5    -0.215019121860E+03    0.62018E-05   -0.18895E-05  7162   0.114E-02    0.305E-02
RMM:   6    -0.215019116375E+03    0.54849E-05   -0.15923E-05  7054   0.101E-02    0.161E-02
RMM:   7    -0.215019115273E+03    0.11024E-05   -0.33613E-06  7176   0.496E-03    0.120E-02
RMM:   8    -0.215019114379E+03    0.89396E-06   -0.97233E-07  6624   0.227E-03    0.556E-03
RMM:   9    -0.215019114070E+03    0.30930E-06   -0.36645E-07  4947   0.167E-03    0.265E-03
RMM:  10    -0.215019113877E+03    0.19287E-06   -0.17264E-07  4160   0.133E-03    0.117E-03
RMM:  11    -0.215019113833E+03    0.44096E-07   -0.55798E-08  4038   0.950E-04
  55 F= -.21501911E+03 E0= -.21502445E+03  d E =-.128147E-03  mag=     0.0000
       N       E                     dE             d eps       ncg     rms          rms(c)
DAV:   1    -0.215018157951E+03    0.95593E-03   -0.56336E-01  6912   0.223E+00    0.200E-01
RMM:   2    -0.215019511461E+03   -0.13535E-02   -0.13130E-02  6912   0.365E-01    0.238E-01
RMM:   3    -0.215019262072E+03    0.24939E-03   -0.95773E-04  7198   0.105E-01    0.159E-01
RMM:   4    -0.215019094451E+03    0.16762E-03   -0.20001E-04  7424   0.364E-02    0.738E-02
RMM:   5    -0.215019070785E+03    0.23666E-04   -0.75562E-05  7166   0.229E-02    0.610E-02
RMM:   6    -0.215019049438E+03    0.21347E-04   -0.63138E-05  7054   0.201E-02    0.312E-02
RMM:   7    -0.215019045685E+03    0.37525E-05   -0.13141E-05  7326   0.985E-03    0.239E-02
RMM:   8    -0.215019042332E+03    0.33528E-05   -0.39387E-06  7926   0.445E-03    0.115E-02
RMM:   9    -0.215019041326E+03    0.10065E-05   -0.15495E-06  6930   0.311E-03    0.536E-03
RMM:  10    -0.215019040943E+03    0.38306E-06   -0.69566E-07  6446   0.224E-03    0.227E-03
RMM:  11    -0.215019040741E+03    0.20173E-06   -0.12460E-07  4164   0.101E-03    0.885E-04
RMM:  12    -0.215019040742E+03   -0.44020E-09   -0.62936E-08  4112   0.743E-04
  56 F= -.21501904E+03 E0= -.21502442E+03  d E =-.550556E-04  mag=     0.0000
       N       E                     dE             d eps       ncg     rms          rms(c)
DAV:   1    -0.215018637205E+03    0.40354E-03   -0.30943E-01  6912   0.165E+00    0.149E-01
RMM:   2    -0.215019383116E+03   -0.74591E-03   -0.72169E-03  6912   0.271E-01    0.177E-01
RMM:   3    -0.215019245817E+03    0.13730E-03   -0.52693E-04  7204   0.775E-02    0.118E-01
RMM:   4    -0.215019153306E+03    0.92511E-04   -0.10917E-04  7396   0.270E-02    0.552E-02
RMM:   5    -0.215019140064E+03    0.13242E-04   -0.41082E-05  7134   0.168E-02    0.451E-02
RMM:   6    -0.215019130300E+03    0.97642E-05   -0.34605E-05  7042   0.148E-02    0.242E-02
RMM:   7    -0.215019128181E+03    0.21189E-05   -0.73836E-06  7302   0.735E-03    0.177E-02
RMM:   8    -0.215019126506E+03    0.16752E-05   -0.22069E-06  7520   0.336E-03    0.845E-03
RMM:   9    -0.215019126266E+03    0.24002E-06   -0.82120E-07  6306   0.229E-03    0.394E-03
RMM:  10    -0.215019126467E+03   -0.20115E-06   -0.34498E-07  4861   0.171E-03    0.154E-03
RMM:  11    -0.215019126574E+03   -0.10719E-06   -0.83494E-08  4082   0.102E-03    0.753E-04
RMM:  12    -0.215019126576E+03   -0.15280E-08   -0.35803E-08  4026   0.549E-04
  57 F= -.21501913E+03 E0= -.21502447E+03  d E =-.140890E-03  mag=     0.0000
       N       E                     dE             d eps       ncg     rms          rms(c)
DAV:   1    -0.215019116139E+03    0.10435E-04   -0.42996E-02  6912   0.609E-01    0.491E-02
RMM:   2    -0.215019216223E+03   -0.10008E-03   -0.99543E-04  6912   0.988E-02    0.641E-02
RMM:   3    -0.215019199248E+03    0.16975E-04   -0.64824E-05  7194   0.281E-02    0.368E-02
RMM:   4    -0.215019191249E+03    0.79984E-05   -0.12314E-05  7574   0.878E-03    0.199E-02
RMM:   5    -0.215019190006E+03    0.12436E-05   -0.50794E-06  7186   0.558E-03    0.172E-02
RMM:   6    -0.215019188393E+03    0.16124E-05   -0.46198E-06  6974   0.520E-03    0.968E-03
RMM:   7    -0.215019188052E+03    0.34150E-06   -0.11371E-06  6394   0.281E-03    0.667E-03
RMM:   8    -0.215019187799E+03    0.25316E-06   -0.32929E-07  4934   0.156E-03    0.291E-03
RMM:   9    -0.215019187726E+03    0.73043E-07   -0.11360E-07  4066   0.116E-03
  58 F= -.21501919E+03 E0= -.21502455E+03  d E =-.611499E-04  mag=     0.0000
       N       E                     dE             d eps       ncg     rms          rms(c)
DAV:   1    -0.215019061768E+03    0.12603E-03   -0.81758E-02  6912   0.839E-01    0.678E-02
RMM:   2    -0.215019253183E+03   -0.19142E-03   -0.18999E-03  6912   0.136E-01    0.888E-02
RMM:   3    -0.215019220401E+03    0.32782E-04   -0.12432E-04  7198   0.388E-02    0.508E-02
RMM:   4    -0.215019205198E+03    0.15203E-04   -0.23837E-05  7644   0.122E-02    0.276E-02
RMM:   5    -0.215019202688E+03    0.25098E-05   -0.96616E-06  7268   0.768E-03    0.236E-02
RMM:   6    -0.215019199673E+03    0.30153E-05   -0.89381E-06  6998   0.721E-03    0.132E-02
RMM:   7    -0.215019199051E+03    0.62228E-06   -0.21967E-06  7006   0.387E-03    0.926E-03
RMM:   8    -0.215019198568E+03    0.48309E-06   -0.67629E-07  6020   0.205E-03    0.422E-03
RMM:   9    -0.215019198422E+03    0.14580E-06   -0.20384E-07  4354   0.132E-03    0.215E-03
RMM:  10    -0.215019198394E+03    0.27685E-07   -0.18718E-07  4152   0.129E-03
  59 F= -.21501920E+03 E0= -.21502457E+03  d E =-.718183E-04  mag=     0.0000
       N       E                     dE             d eps       ncg     rms          rms(c)
DAV:   1    -0.215019181588E+03    0.16834E-04   -0.14223E-02  6912   0.350E-01    0.283E-02
RMM:   2    -0.215019214664E+03   -0.33077E-04   -0.32884E-04  6912   0.568E-02    0.367E-02
RMM:   3    -0.215019209182E+03    0.54818E-05   -0.21396E-05  7192   0.161E-02    0.213E-02
RMM:   4    -0.215019206504E+03    0.26784E-05   -0.40716E-06  7490   0.505E-03    0.115E-02
RMM:   5    -0.215019206066E+03    0.43774E-06   -0.16481E-06  6758   0.319E-03    0.984E-03
RMM:   6    -0.215019205560E+03    0.50619E-06   -0.14974E-06  6778   0.299E-03    0.560E-03
RMM:   7    -0.215019205432E+03    0.12789E-06   -0.33602E-07  4850   0.163E-03    0.368E-03
RMM:   8    -0.215019205335E+03    0.96894E-07   -0.10838E-07  4015   0.114E-03
  60 F= -.21501921E+03 E0= -.21502457E+03  d E =-.787595E-04  mag=    -0.0000
       N       E                     dE             d eps       ncg     rms          rms(c)
DAV:   1    -0.215019213997E+03   -0.85654E-05   -0.26387E-02  6912   0.484E-01    0.445E-02
RMM:   2    -0.215019283202E+03   -0.69204E-04   -0.63948E-04  6912   0.805E-02    0.676E-02
RMM:   3    -0.215019261777E+03    0.21425E-04   -0.45059E-05  7228   0.225E-02    0.288E-02
RMM:   4    -0.215019256921E+03    0.48567E-05   -0.90981E-06  7362   0.799E-03    0.192E-02
RMM:   5    -0.215019256600E+03    0.32042E-06   -0.55541E-06  7168   0.609E-03    0.199E-02
RMM:   6    -0.215019255220E+03    0.13798E-05   -0.35803E-06  7032   0.511E-03    0.103E-02
RMM:   7    -0.215019254762E+03    0.45826E-06   -0.88850E-07  6240   0.254E-03    0.513E-03
RMM:   8    -0.215019254694E+03    0.67943E-07   -0.27152E-07  4602   0.146E-03
  61 F= -.21501925E+03 E0= -.21502462E+03  d E =-.493591E-04  mag=     0.0000
       N       E                     dE             d eps       ncg     rms          rms(c)
DAV:   1    -0.215019129959E+03    0.12480E-03   -0.10726E-01  6912   0.975E-01    0.902E-02
RMM:   2    -0.215019411003E+03   -0.28104E-03   -0.26134E-03  6912   0.163E-01    0.135E-01
RMM:   3    -0.215019326925E+03    0.84078E-04   -0.18588E-04  7246   0.456E-02    0.588E-02
RMM:   4    -0.215019306653E+03    0.20273E-04   -0.37480E-05  7410   0.161E-02    0.387E-02
RMM:   5    -0.215019305595E+03    0.10578E-05   -0.22358E-05  7198   0.122E-02    0.406E-02
RMM:   6    -0.215019299235E+03    0.63601E-05   -0.14631E-05  7050   0.103E-02    0.203E-02
RMM:   7    -0.215019297371E+03    0.18640E-05   -0.36679E-06  7180   0.506E-03    0.107E-02
RMM:   8    -0.215019296914E+03    0.45721E-06   -0.12677E-06  6851   0.268E-03    0.617E-03
RMM:   9    -0.215019296746E+03    0.16714E-06   -0.43923E-07  5304   0.175E-03    0.297E-03
RMM:  10    -0.215019296912E+03   -0.16572E-06   -0.21807E-07  4214   0.137E-03    0.158E-03
RMM:  11    -0.215019296951E+03   -0.39279E-07   -0.52045E-08  4028   0.899E-04
  62 F= -.21501930E+03 E0= -.21502467E+03  d E =-.916162E-04  mag=     0.0000
       N       E                     dE             d eps       ncg     rms          rms(c)
DAV:   1    -0.215019302987E+03   -0.60749E-05   -0.23131E-02  6912   0.457E-01    0.463E-02
RMM:   2    -0.215019360629E+03   -0.57642E-04   -0.56926E-04  6912   0.762E-02    0.530E-02
RMM:   3    -0.215019350080E+03    0.10548E-04   -0.40600E-05  7274   0.216E-02    0.366E-02
RMM:   4    -0.215019342001E+03    0.80792E-05   -0.89991E-06  7274   0.831E-03    0.151E-02
RMM:   5    -0.215019343071E+03   -0.10697E-05   -0.56702E-06  7186   0.632E-03    0.205E-02
RMM:   6    -0.215019340619E+03    0.24520E-05   -0.24583E-06  7118   0.416E-03    0.838E-03
RMM:   7    -0.215019340158E+03    0.46044E-06   -0.66179E-07  5794   0.217E-03    0.453E-03
RMM:   8    -0.215019339976E+03    0.18184E-06   -0.22597E-07  4364   0.150E-03    0.247E-03
RMM:   9    -0.215019339885E+03    0.91775E-07   -0.99865E-08  4018   0.112E-03
  63 F= -.21501934E+03 E0= -.21502472E+03  d E =-.429332E-04  mag=     0.0000
       N       E                     dE             d eps       ncg     rms          rms(c)
DAV:   1    -0.215019274891E+03    0.65086E-04   -0.54705E-02  6912   0.703E-01    0.711E-02
RMM:   2    -0.215019411356E+03   -0.13646E-03   -0.13463E-03  6912   0.117E-01    0.812E-02
RMM:   3    -0.215019386902E+03    0.24453E-04   -0.95606E-05  7270   0.333E-02    0.563E-02
RMM:   4    -0.215019367956E+03    0.18946E-04   -0.21218E-05  7260   0.128E-02    0.232E-02
RMM:   5    -0.215019370703E+03   -0.27464E-05   -0.13435E-05  7180   0.975E-03    0.314E-02
RMM:   6    -0.215019365228E+03    0.54749E-05   -0.57743E-06  7170   0.639E-03    0.130E-02
RMM:   7    -0.215019364202E+03    0.10258E-05   -0.16599E-06  6880   0.335E-03    0.712E-03
RMM:   8    -0.215019363809E+03    0.39348E-06   -0.57319E-07  5858   0.196E-03    0.368E-03
RMM:   9    -0.215019363619E+03    0.18996E-06   -0.19603E-07  4308   0.140E-03    0.191E-03
RMM:  10    -0.215019363512E+03    0.10626E-06   -0.85231E-08  4066   0.100E-03    0.850E-04
RMM:  11    -0.215019363462E+03    0.49960E-07   -0.31065E-08  3946   0.612E-04
  64 F= -.21501936E+03 E0= -.21502475E+03  d E =-.665110E-04  mag=     0.0000
