unknown system                          
           1
    15.328322    0.000000   -1.155496
     0.000000    3.641725    0.000000
    -0.349105    0.000000   10.888114
   Sr   Ir   O 
   2  10  20
Direct configuration=     1
   0.24660000  0.00000000  0.12420000
   0.25340000  0.50000000  0.87580000
   0.00000000  0.50000000  0.00000000
   0.50000000  0.00000000  0.00000000
   0.99978000  0.00000000  0.26820000
   0.49978000  0.50000000  0.26820000
   0.00022000  0.00000000  0.73180000
   0.50022000  0.50000000  0.73180000
   0.34010000  0.00000000  0.48410000
   0.84010000  0.50000000  0.48410000
   0.65990000  0.00000000  0.51590000
   0.15990000  0.50000000  0.51590000
   0.56690000  0.00000000  0.17730000
   0.06690000  0.50000000  0.17730000
   0.43310000  0.00000000  0.82270000
   0.93310000  0.50000000  0.82270000
   0.09760000  0.00000000  0.42440000
   0.59760000  0.50000000  0.42440000
   0.90240000  0.00000000  0.57560000
   0.40240000  0.50000000  0.57560000
   0.76630000  0.00000000  0.39580000
   0.26630000  0.50000000  0.39580000
   0.23370000  0.00000000  0.60420000
   0.73370000  0.50000000  0.60420000
   0.42480000  0.00000000  0.33540000
   0.92480000  0.50000000  0.33540000
   0.57520000  0.00000000  0.66460000
   0.07520000  0.50000000  0.66460000
   0.92630000  0.00000000  0.07210000
   0.42630000  0.50000000  0.07210000
   0.07370000  0.00000000  0.92790000
   0.57370000  0.50000000  0.92790000
unknown system                          
           1
    14.353259    0.000000   -0.758519
     0.000000    3.091946    0.000000
    -0.107933    0.000000   10.052132
   Sr   Ir   O 
   2  10  20
Direct configuration=     2
   0.24604330  0.00000000  0.14359666
   0.25395670  0.50000000  0.85640334
  -0.00819657  0.50000000  0.00020305
   0.50819657  0.00000000 -0.00020305
   0.99719981  0.00000000  0.27059397
   0.50722958  0.50000000  0.27046423
  -0.00722958  0.00000000  0.72953577
   0.50280019  0.50000000  0.72940603
   0.34737560  0.00000000  0.48006895
   0.84464969  0.50000000  0.47911286
   0.65535031  0.00000000  0.52088714
   0.15262440  0.50000000  0.51993105
   0.57460240  0.00000000  0.17928827
   0.08340779  0.50000000  0.17911321
   0.41659221  0.00000000  0.82088679
   0.92539760  0.50000000  0.82071173
   0.08801823  0.00000000  0.41085700
   0.58732329  0.50000000  0.41160042
   0.91267671  0.00000000  0.58839958
   0.41198177  0.50000000  0.58914300
   0.76426935  0.00000000  0.38066276
   0.26354774  0.50000000  0.37021922
   0.23645226  0.00000000  0.62978078
   0.73573065  0.50000000  0.61933724
   0.41826022  0.00000000  0.33764104
   0.92188119  0.50000000  0.33923156
   0.57811881  0.00000000  0.66076844
   0.08173978  0.50000000  0.66235896
   0.91927824  0.00000000  0.08631181
   0.40852599  0.50000000  0.08696352
   0.09147401  0.00000000  0.91303648
   0.58072176  0.50000000  0.91368819
unknown system                          
           1
    14.289797    0.000000   -0.732681
     0.000000    3.056164    0.000000
    -0.092236    0.000000    9.997722
   Sr   Ir   O 
   2  10  20
Direct configuration=     3
   0.24612093  0.00000000  0.13167387
   0.25387907  0.50000000  0.86832613
  -0.00305283  0.50000000  0.00032217
   0.50305283  0.00000000 -0.00032217
   0.99878634  0.00000000  0.26919723
   0.50252028  0.50000000  0.26884866
  -0.00252028  0.00000000  0.73115134
   0.50121366  0.50000000  0.73080277
   0.34286380  0.00000000  0.48233354
   0.84186287  0.50000000  0.48204714
   0.65813713  0.00000000  0.51795286
   0.15713620  0.50000000  0.51766646
   0.56973822  0.00000000  0.17783503
   0.07301720  0.50000000  0.17750549
   0.42698280  0.00000000  0.82249451
   0.93026178  0.50000000  0.82216497
   0.09422444  0.00000000  0.41947858
   0.59395542  0.50000000  0.41978509
   0.90604458  0.00000000  0.58021491
   0.40577556  0.50000000  0.58052142
   0.76575660  0.00000000  0.39004077
   0.26563449  0.50000000  0.38604711
   0.23436551  0.00000000  0.61395289
   0.73424340  0.50000000  0.60995923
   0.42233510  0.00000000  0.33645636
   0.92366018  0.50000000  0.33696002
   0.57633982  0.00000000  0.66303998
   0.07766490  0.50000000  0.66354364
   0.92348794  0.00000000  0.07777302
   0.41947784  0.50000000  0.07834379
   0.08052216  0.00000000  0.92165621
   0.57651206  0.50000000  0.92222698
unknown system                          
           1
    14.269648    0.000000   -0.724478
     0.000000    3.044803    0.000000
    -0.087253    0.000000    9.980447
   Sr   Ir   O 
   2  10  20
Direct configuration=     4
   0.24613888  0.00000000  0.13083411
   0.25386112  0.50000000  0.86916589
  -0.00269552  0.50000000  0.00031904
   0.50269552  0.00000000 -0.00031904
   0.99889806  0.00000000  0.26909533
   0.50219474  0.50000000  0.26874543
  -0.00219474  0.00000000  0.73125457
   0.50110194  0.50000000  0.73090467
   0.34254789  0.00000000  0.48250310
   0.84166613  0.50000000  0.48226000
   0.65833387  0.00000000  0.51774000
   0.15745211  0.50000000  0.51749690
   0.56940175  0.00000000  0.17774358
   0.07229686  0.50000000  0.17741554
   0.42770314  0.00000000  0.82258446
   0.93059825  0.50000000  0.82225642
   0.09464662  0.00000000  0.42007180
   0.59440767  0.50000000  0.42034660
   0.90559233  0.00000000  0.57965340
   0.40535338  0.50000000  0.57992820
   0.76585006  0.00000000  0.39069783
   0.26576282  0.50000000  0.38715701
   0.23423718  0.00000000  0.61284299
   0.73414994  0.50000000  0.60930217
   0.42261951  0.00000000  0.33636381
   0.92378620  0.50000000  0.33679608
   0.57621380  0.00000000  0.66320392
   0.07738049  0.50000000  0.66363619
   0.92378946  0.00000000  0.07716232
   0.42024796  0.50000000  0.07771230
   0.07975204  0.00000000  0.92228770
   0.57621054  0.50000000  0.92283768
unknown system                          
           1
    13.737166    0.000000   -0.836471
     0.000000    3.111932    0.000000
    -0.167328    0.000000    9.881936
   Sr   Ir   O 
   2  10  20
Direct configuration=     5
   0.24614489  0.00000000  0.13056605
   0.25385511  0.50000000  0.86943395
  -0.00258157  0.50000000  0.00031779
   0.50258157  0.00000000 -0.00031779
   0.99893372  0.00000000  0.26906272
   0.50209095  0.50000000  0.26871271
  -0.00209095  0.00000000  0.73128729
   0.50106628  0.50000000  0.73093728
   0.34244708  0.00000000  0.48255746
   0.84160331  0.50000000  0.48232809
   0.65839669  0.00000000  0.51767191
   0.15755292  0.50000000  0.51744254
   0.56929447  0.00000000  0.17771463
   0.07206717  0.50000000  0.17738734
   0.42793283  0.00000000  0.82261266
   0.93070553  0.50000000  0.82228537
   0.09478106  0.00000000  0.42026086
   0.59455170  0.50000000  0.42052551
   0.90544830  0.00000000  0.57947449
   0.40521894  0.50000000  0.57973914
   0.76587965  0.00000000  0.39090749
   0.26580337  0.50000000  0.38751120
   0.23419663  0.00000000  0.61248880
   0.73412035  0.50000000  0.60909251
   0.42271024  0.00000000  0.33633407
   0.92382644  0.50000000  0.33674366
   0.57617356  0.00000000  0.66325634
   0.07728976  0.50000000  0.66366593
   0.92388583  0.00000000  0.07696716
   0.42049377  0.50000000  0.07751017
   0.07950623  0.00000000  0.92248983
   0.57611417  0.50000000  0.92303284
unknown system                          
           1
    13.492433    0.000000   -0.887945
     0.000000    3.142785    0.000000
    -0.204132    0.000000    9.836660
   Sr   Ir   O 
   2  10  20
Direct configuration=     6
   0.24578584  0.00000000  0.14468646
   0.25421416  0.50000000  0.85531354
  -0.00452471  0.50000000  0.00050727
   0.50452471  0.00000000 -0.00050727
   0.99728990  0.00000000  0.26666529
   0.50336245  0.50000000  0.26786136
  -0.00336245  0.00000000  0.73213864
   0.50271010  0.50000000  0.73333471
   0.34139612  0.00000000  0.48653317
   0.84045741  0.50000000  0.48472479
   0.65954259  0.00000000  0.51527521
   0.15860388  0.50000000  0.51346683
   0.56861157  0.00000000  0.18141583
   0.07532630  0.50000000  0.18070394
   0.42467370  0.00000000  0.81929606
   0.93138843  0.50000000  0.81858417
   0.09397648  0.00000000  0.42040894
   0.59397489  0.50000000  0.42150267
   0.90602511  0.00000000  0.57849733
   0.40602352  0.50000000  0.57959106
   0.76626301  0.00000000  0.39254150
   0.26556898  0.50000000  0.38252987
   0.23443102  0.00000000  0.61747013
   0.73373699  0.50000000  0.60745850
   0.42464208  0.00000000  0.33154782
   0.92686051  0.50000000  0.33514761
   0.57313949  0.00000000  0.66485239
   0.07535792  0.50000000  0.66845218
   0.92642102  0.00000000  0.08099612
   0.41714942  0.50000000  0.08042030
   0.08285058  0.00000000  0.91957970
   0.57357898  0.50000000  0.91900388
unknown system                          
           1
    13.187590    0.000000   -0.882281
     0.000000    3.173470    0.000000
    -0.191227    0.000000    9.899926
   Sr   Ir   O 
   2  10  20
Direct configuration=     7
   0.24565305  0.00000000  0.15124189
   0.25434695  0.50000000  0.84875811
  -0.00545205  0.50000000  0.00058221
   0.50545205  0.00000000 -0.00058221
   0.99649841  0.00000000  0.26554081
   0.50396726  0.50000000  0.26747452
  -0.00396726  0.00000000  0.73252548
   0.50350159  0.50000000  0.73445919
   0.34090517  0.00000000  0.48837252
   0.83991680  0.50000000  0.48583016
   0.66008320  0.00000000  0.51416984
   0.15909483  0.50000000  0.51162748
   0.56829561  0.00000000  0.18313015
   0.07689163  0.50000000  0.18226615
   0.42310837  0.00000000  0.81773385
   0.93170439  0.50000000  0.81686985
   0.09359269  0.00000000  0.42047230
   0.59370214  0.50000000  0.42195261
   0.90629786  0.00000000  0.57804739
   0.40640731  0.50000000  0.57952770
   0.76645053  0.00000000  0.39330295
   0.26544342  0.50000000  0.38021486
   0.23455658  0.00000000  0.61978514
   0.73354947  0.50000000  0.60669705
   0.42555144  0.00000000  0.32933796
   0.92830492  0.50000000  0.33442677
   0.57169508  0.00000000  0.66557323
   0.07444856  0.50000000  0.67066204
   0.92764263  0.00000000  0.08288430
   0.41556043  0.50000000  0.08174935
   0.08443957  0.00000000  0.91825065
   0.57235737  0.50000000  0.91711570
unknown system                          
           1
    12.941095    0.000000   -0.877702
     0.000000    3.198282    0.000000
    -0.180793    0.000000    9.951084
   Sr   Ir   O 
   2  10  20
Direct configuration=     8
   0.24552864  0.00000000  0.16552899
   0.25447136  0.50000000  0.83447101
  -0.00395467  0.50000000  0.00043746
   0.50395467  0.00000000 -0.00043746
   0.99757313  0.00000000  0.26514494
   0.50266018  0.50000000  0.26524654
  -0.00266018  0.00000000  0.73475346
   0.50242687  0.50000000  0.73485506
   0.34193799  0.00000000  0.48622587
   0.84244330  0.50000000  0.48455004
   0.65755670  0.00000000  0.51544996
   0.15806201  0.50000000  0.51377413
   0.56995933  0.00000000  0.18745884
   0.07972359  0.50000000  0.18584346
   0.42027641  0.00000000  0.81415654
   0.93004067  0.50000000  0.81254116
   0.09374082  0.00000000  0.42169825
   0.59519864  0.50000000  0.42535101
   0.90480136  0.00000000  0.57464899
   0.40625918  0.50000000  0.57830175
   0.76766774  0.00000000  0.39213009
   0.26616976  0.50000000  0.37525015
   0.23383024  0.00000000  0.62474985
   0.73233226  0.50000000  0.60786991
   0.42561445  0.00000000  0.32715857
   0.92927835  0.50000000  0.33421580
   0.57072165  0.00000000  0.66578420
   0.07438555  0.50000000  0.67284143
   0.92794977  0.00000000  0.08312645
   0.41272751  0.50000000  0.08223873
   0.08727249  0.00000000  0.91776127
   0.57205023  0.50000000  0.91687355
unknown system                          
           1
    12.837591    0.000000   -0.839355
     0.000000    3.165952    0.000000
    -0.145790    0.000000   10.011095
   Sr   Ir   O 
   2  10  20
Direct configuration=     9
   0.24541332  0.00000000  0.17700645
   0.25458668  0.50000000  0.82299355
  -0.00271575  0.50000000  0.00032299
   0.50271575  0.00000000 -0.00032299
   0.99846260  0.00000000  0.26482820
   0.50158076  0.50000000  0.26345511
  -0.00158076  0.00000000  0.73654489
   0.50153740  0.50000000  0.73517180
   0.34279431  0.00000000  0.48450259
   0.84453461  0.50000000  0.48352469
   0.65546539  0.00000000  0.51647531
   0.15720569  0.50000000  0.51549741
   0.57133199  0.00000000  0.19093832
   0.08206340  0.50000000  0.18872072
   0.41793660  0.00000000  0.81127928
   0.92866801  0.50000000  0.80906168
   0.09386231  0.00000000  0.42268330
   0.59643375  0.50000000  0.42808294
   0.90356625  0.00000000  0.57191706
   0.40613769  0.50000000  0.57731670
   0.76867577  0.00000000  0.39118934
   0.26677497  0.50000000  0.37126261
   0.23322503  0.00000000  0.62873739
   0.73132423  0.50000000  0.60881066
   0.42566846  0.00000000  0.32540782
   0.93008386  0.50000000  0.33404749
   0.56991614  0.00000000  0.66595251
   0.07433154  0.50000000  0.67459218
   0.92820367  0.00000000  0.08332136
   0.41038339  0.50000000  0.08262847
   0.08961661  0.00000000  0.91737153
   0.57179633  0.50000000  0.91667864
unknown system                          
           1
    12.822209    0.000000   -0.833656
     0.000000    3.161148    0.000000
    -0.140588    0.000000   10.020013
   Sr   Ir   O 
   2  10  20
Direct configuration=    10
   0.24539118  0.00000000  0.18497107
   0.25460882  0.50000000  0.81502893
  -0.00015472  0.50000000 -0.00156854
   0.50015472  0.00000000  0.00156854
   0.00070677  0.00000000  0.26519298
   0.50188420  0.50000000  0.26594809
  -0.00188420  0.00000000  0.73405191
   0.49929323  0.50000000  0.73480702
   0.34295117  0.00000000  0.48011484
   0.84349863  0.50000000  0.48042766
   0.65650137  0.00000000  0.51957234
   0.15704883  0.50000000  0.51988516
   0.57341987  0.00000000  0.18972077
   0.08326361  0.50000000  0.18967325
   0.41673639  0.00000000  0.81032675
   0.92658013  0.50000000  0.81027923
   0.09502682  0.00000000  0.42538034
   0.59431190  0.50000000  0.42617025
   0.90568810  0.00000000  0.57382975
   0.40497318  0.50000000  0.57461966
   0.76936908  0.00000000  0.39057280
   0.26744586  0.50000000  0.37030146
   0.23255414  0.00000000  0.62969854
   0.73063092  0.50000000  0.60942720
   0.42421422  0.00000000  0.32545847
   0.93025079  0.50000000  0.33311674
   0.56974921  0.00000000  0.66688326
   0.07578578  0.50000000  0.67454153
   0.92767008  0.00000000  0.08035778
   0.40839867  0.50000000  0.08091112
   0.09160133  0.00000000  0.91908888
   0.57232992  0.50000000  0.91964222
unknown system                          
           1
    12.894328    0.000000   -0.842792
     0.000000    3.155765    0.000000
    -0.145882    0.000000   10.060554
   Sr   Ir   O 
   2  10  20
Direct configuration=    11
   0.24538456  0.00000000  0.18614737
   0.25461544  0.50000000  0.81385263
   0.00022972  0.50000000 -0.00184910
   0.49977028  0.00000000  0.00184910
   0.00104281  0.00000000  0.26524579
   0.50192862  0.50000000  0.26631614
  -0.00192862  0.00000000  0.73368386
   0.49895719  0.50000000  0.73475421
   0.34297649  0.00000000  0.47946674
   0.84334472  0.50000000  0.47997075
   0.65665528  0.00000000  0.52002925
   0.15702351  0.50000000  0.52053326
   0.57373316  0.00000000  0.18953997
   0.08344302  0.50000000  0.18981337
   0.41655698  0.00000000  0.81018663
   0.92626684  0.50000000  0.81046003
   0.09520015  0.00000000  0.42577812
   0.59399482  0.50000000  0.42588876
   0.90600518  0.00000000  0.57411124
   0.40479985  0.50000000  0.57422188
   0.76947320  0.00000000  0.39048141
   0.26754676  0.50000000  0.37015920
   0.23245324  0.00000000  0.62984080
   0.73052680  0.50000000  0.60951859
   0.42399634  0.00000000  0.32546664
   0.93027618  0.50000000  0.33297920
   0.56972382  0.00000000  0.66702080
   0.07600366  0.50000000  0.67453336
   0.92759138  0.00000000  0.07992035
   0.40810205  0.50000000  0.08065842
   0.09189795  0.00000000  0.91934158
   0.57240862  0.50000000  0.92007965
unknown system                          
           1
    12.943698    0.000000   -0.849046
     0.000000    3.152081    0.000000
    -0.149506    0.000000   10.088306
   Sr   Ir   O 
   2  10  20
Direct configuration=    12
   0.24524060  0.00000000  0.18723597
   0.25475940  0.50000000  0.81276403
   0.00165681  0.50000000 -0.00271280
   0.49834319  0.00000000  0.00271280
   0.00166898  0.00000000  0.26413210
   0.50241267  0.50000000  0.26504523
  -0.00241267  0.00000000  0.73495477
   0.49833102  0.50000000  0.73586790
   0.34149471  0.00000000  0.47912941
   0.84337397  0.50000000  0.48066486
   0.65662603  0.00000000  0.51933514
   0.15850529  0.50000000  0.52087059
   0.57457497  0.00000000  0.18695977
   0.08395709  0.50000000  0.18827294
   0.41604291  0.00000000  0.81172706
   0.92542503  0.50000000  0.81304023
   0.09566850  0.00000000  0.42738843
   0.59324571  0.50000000  0.42612557
   0.90675429  0.00000000  0.57387443
   0.40433150  0.50000000  0.57261157
   0.76863660  0.00000000  0.38913107
   0.26749211  0.50000000  0.37155768
   0.23250789  0.00000000  0.62844232
   0.73136340  0.50000000  0.61086893
   0.42324552  0.00000000  0.32521475
   0.93031884  0.50000000  0.33189481
   0.56968116  0.00000000  0.66810519
   0.07675448  0.50000000  0.67478525
   0.92812380  0.00000000  0.07861949
   0.40733440  0.50000000  0.08046474
   0.09266560  0.00000000  0.91953526
   0.57187620  0.50000000  0.92138051
unknown system                          
           1
    12.968328    0.000000   -0.842747
     0.000000    3.134514    0.000000
    -0.148455    0.000000   10.033835
   Sr   Ir   O 
   2  10  20
Direct configuration=    13
   0.24514288  0.00000000  0.18797815
   0.25485712  0.50000000  0.81202185
   0.00262804  0.50000000 -0.00330124
   0.49737196  0.00000000  0.00330124
   0.00209494  0.00000000  0.26337295
   0.50274185  0.50000000  0.26417886
  -0.00274185  0.00000000  0.73582114
   0.49790506  0.50000000  0.73662705
   0.34048595  0.00000000  0.47889896
   0.84339406  0.50000000  0.48113812
   0.65660594  0.00000000  0.51886188
   0.15951405  0.50000000  0.52110104
   0.57514737  0.00000000  0.18520083
   0.08430665  0.50000000  0.18722283
   0.41569335  0.00000000  0.81277717
   0.92485263  0.50000000  0.81479917
   0.09598772  0.00000000  0.42848650
   0.59273583  0.50000000  0.42628679
   0.90726417  0.00000000  0.57371321
   0.40401228  0.50000000  0.57151350
   0.76806677  0.00000000  0.38821013
   0.26745525  0.50000000  0.37251115
   0.23254475  0.00000000  0.62748885
   0.73193323  0.50000000  0.61178987
   0.42273437  0.00000000  0.32504278
   0.93034760  0.50000000  0.33115548
   0.56965240  0.00000000  0.66884452
   0.07726563  0.50000000  0.67495722
   0.92848590  0.00000000  0.07773272
   0.40681180  0.50000000  0.08033246
   0.09318820  0.00000000  0.91966754
   0.57151410  0.50000000  0.92226728
unknown system                          
           1
    12.973888    0.000000   -0.841325
     0.000000    3.130549    0.000000
    -0.148217    0.000000   10.021538
   Sr   Ir   O 
   2  10  20
Direct configuration=    14
   0.24493288  0.00000000  0.18841019
   0.25506712  0.50000000  0.81158981
   0.00381771  0.50000000 -0.00326058
   0.49618229  0.00000000  0.00326058
   0.00294511  0.00000000  0.26300461
   0.50339308  0.50000000  0.26304464
  -0.00339308  0.00000000  0.73695536
   0.49705489  0.50000000  0.73699539
   0.34024924  0.00000000  0.47879223
   0.84358885  0.50000000  0.48031164
   0.65641115  0.00000000  0.51968836
   0.15975076  0.50000000  0.52120777
   0.57547112  0.00000000  0.18244453
   0.08517738  0.50000000  0.18473891
   0.41482262  0.00000000  0.81526109
   0.92452888  0.50000000  0.81755547
   0.09573195  0.00000000  0.42894448
   0.59176299  0.50000000  0.42591958
   0.90823701  0.00000000  0.57408042
   0.40426805  0.50000000  0.57105552
   0.76710425  0.00000000  0.38789987
   0.26676825  0.50000000  0.37410674
   0.23323175  0.00000000  0.62589326
   0.73289575  0.50000000  0.61210013
   0.42188857  0.00000000  0.32446447
   0.93007058  0.50000000  0.33052695
   0.56992942  0.00000000  0.66947305
   0.07811143  0.50000000  0.67553553
   0.93046146  0.00000000  0.07649962
   0.40579508  0.50000000  0.08067175
   0.09420492  0.00000000  0.91932825
   0.56953854  0.50000000  0.92350038
unknown system                          
           1
    13.036345    0.000000   -0.824456
     0.000000    3.137078    0.000000
    -0.136546    0.000000   10.011571
   Sr   Ir   O 
   2  10  20
Direct configuration=    15
   0.24488556  0.00000000  0.18850829
   0.25511444  0.50000000  0.81149171
   0.00408576  0.50000000 -0.00325156
   0.49591424  0.00000000  0.00325156
   0.00313666  0.00000000  0.26292086
   0.50353982  0.50000000  0.26278710
  -0.00353982  0.00000000  0.73721290
   0.49686334  0.50000000  0.73707914
   0.34019590  0.00000000  0.47876804
   0.84363274  0.50000000  0.48012403
   0.65636726  0.00000000  0.51987597
   0.15980410  0.50000000  0.52123196
   0.57554408  0.00000000  0.18181888
   0.08537357  0.50000000  0.18417499
   0.41462643  0.00000000  0.81582501
   0.92445592  0.50000000  0.81818112
   0.09567432  0.00000000  0.42904847
   0.59154380  0.50000000  0.42583641
   0.90845620  0.00000000  0.57416359
   0.40432568  0.50000000  0.57095153
   0.76688738  0.00000000  0.38782962
   0.26661346  0.50000000  0.37446901
   0.23338654  0.00000000  0.62553099
   0.73311262  0.50000000  0.61217038
   0.42169801  0.00000000  0.32433336
   0.93000817  0.50000000  0.33038435
   0.56999183  0.00000000  0.66961565
   0.07830199  0.50000000  0.67566664
   0.93090658  0.00000000  0.07621940
   0.40556600  0.50000000  0.08074893
   0.09443400  0.00000000  0.91925107
   0.56909342  0.50000000  0.92378060
unknown system                          
           1
    13.071173    0.000000   -0.815049
     0.000000    3.140719    0.000000
    -0.130038    0.000000   10.006012
   Sr   Ir   O 
   2  10  20
Direct configuration=    16
   0.24472423  0.00000000  0.18813350
   0.25527577  0.50000000  0.81186650
   0.00549068  0.50000000 -0.00345326
   0.49450932  0.00000000  0.00345326
   0.00401845  0.00000000  0.26313942
   0.50364359  0.50000000  0.26177712
  -0.00364359  0.00000000  0.73822288
   0.49598155  0.50000000  0.73686058
   0.34126115  0.00000000  0.47895986
   0.84402047  0.50000000  0.47908582
   0.65597953  0.00000000  0.52091418
   0.15873885  0.50000000  0.52104014
   0.57617991  0.00000000  0.18002968
   0.08709549  0.50000000  0.18204876
   0.41290451  0.00000000  0.81795124
   0.92382009  0.50000000  0.81997032
   0.09478080  0.00000000  0.42860798
   0.59092748  0.50000000  0.42573609
   0.90907252  0.00000000  0.57426391
   0.40521920  0.50000000  0.57139202
   0.76591822  0.00000000  0.38804444
   0.26544217  0.50000000  0.37513301
   0.23455783  0.00000000  0.62486699
   0.73408178  0.50000000  0.61195556
   0.42128713  0.00000000  0.32277399
   0.92980519  0.50000000  0.32943086
   0.57019481  0.00000000  0.67056914
   0.07871287  0.50000000  0.67722601
   0.93327665  0.00000000  0.07549884
   0.40379743  0.50000000  0.08116518
   0.09620257  0.00000000  0.91883482
   0.56672335  0.50000000  0.92450116
unknown system                          
           1
    13.104437    0.000000   -0.797025
     0.000000    3.131702    0.000000
    -0.116995    0.000000    9.999228
   Sr   Ir   O 
   2  10  20
Direct configuration=    17
   0.24463490  0.00000000  0.18792451
   0.25536510  0.50000000  0.81207549
   0.00627041  0.50000000 -0.00356747
   0.49372959  0.00000000  0.00356747
   0.00450767  0.00000000  0.26326038
   0.50370168  0.50000000  0.26121330
  -0.00370168  0.00000000  0.73878670
   0.49549233  0.50000000  0.73673962
   0.34185220  0.00000000  0.47906568
   0.84423615  0.50000000  0.47850591
   0.65576385  0.00000000  0.52149409
   0.15814780  0.50000000  0.52093432
   0.57653364  0.00000000  0.17903033
   0.08805210  0.50000000  0.18086005
   0.41194790  0.00000000  0.81913995
   0.92346636  0.50000000  0.82096967
   0.09428518  0.00000000  0.42836317
   0.59058551  0.50000000  0.42568081
   0.90941449  0.00000000  0.57431919
   0.40571482  0.50000000  0.57163683
   0.76538028  0.00000000  0.38816547
   0.26479186  0.50000000  0.37550497
   0.23520814  0.00000000  0.62449503
   0.73461972  0.50000000  0.61183453
   0.42105989  0.00000000  0.32190413
   0.92969302  0.50000000  0.32889892
   0.57030698  0.00000000  0.67110108
   0.07894011  0.50000000  0.67809587
   0.93459224  0.00000000  0.07509392
   0.40281578  0.50000000  0.08139955
   0.09718422  0.00000000  0.91860045
   0.56540776  0.50000000  0.92490608
unknown system                          
           1
    13.137926    0.000000   -0.778881
     0.000000    3.122624    0.000000
    -0.103865    0.000000    9.992399
   Sr   Ir   O 
   2  10  20
Direct configuration=    18
   0.24475020  0.00000000  0.18723917
   0.25524980  0.50000000  0.81276083
   0.00797022  0.50000000 -0.00518425
   0.49202978  0.00000000  0.00518425
   0.00525202  0.00000000  0.26254483
   0.50377642  0.50000000  0.26027409
  -0.00377642  0.00000000  0.73972591
   0.49474798  0.50000000  0.73745517
   0.34280314  0.00000000  0.47893991
   0.84441940  0.50000000  0.47867155
   0.65558060  0.00000000  0.52132845
   0.15719686  0.50000000  0.52106009
   0.57704604  0.00000000  0.17876008
   0.09004411  0.50000000  0.18019646
   0.40995589  0.00000000  0.81980354
   0.92295396  0.50000000  0.82123992
   0.09344360  0.00000000  0.42840310
   0.59037285  0.50000000  0.42602736
   0.90962715  0.00000000  0.57397264
   0.40655640  0.50000000  0.57159690
   0.76494891  0.00000000  0.38950696
   0.26408875  0.50000000  0.37598192
   0.23591125  0.00000000  0.62401808
   0.73505109  0.50000000  0.61049304
   0.42135517  0.00000000  0.31960049
   0.93005151  0.50000000  0.32704877
   0.56994849  0.00000000  0.67295123
   0.07864483  0.50000000  0.68039951
   0.93725513  0.00000000  0.07527663
   0.40065049  0.50000000  0.08162581
   0.09934951  0.00000000  0.91837419
   0.56274487  0.50000000  0.92472337
unknown system                          
           1
    13.159086    0.000000   -0.777839
     0.000000    3.121809    0.000000
    -0.104078    0.000000    9.978254
   Sr   Ir   O 
   2  10  20
Direct configuration=    19
   0.24486667  0.00000000  0.18654857
   0.25513333  0.50000000  0.81345143
   0.00967868  0.50000000 -0.00681631
   0.49032132  0.00000000  0.00681631
   0.00600016  0.00000000  0.26182254
   0.50385240  0.50000000  0.25932786
  -0.00385240  0.00000000  0.74067214
   0.49399984  0.50000000  0.73817746
   0.34375815  0.00000000  0.47881131
   0.84460324  0.50000000  0.47883803
   0.65539676  0.00000000  0.52116197
   0.15624185  0.50000000  0.52118869
   0.57756083  0.00000000  0.17848682
   0.09204505  0.50000000  0.17952399
   0.40795495  0.00000000  0.82047601
   0.92243917  0.50000000  0.82151318
   0.09259849  0.00000000  0.42844502
   0.59015896  0.50000000  0.42637687
   0.90984104  0.00000000  0.57362313
   0.40740151  0.50000000  0.57155498
   0.76451442  0.00000000  0.39085916
   0.26338225  0.50000000  0.37646377
   0.23661775  0.00000000  0.62353623
   0.73548558  0.50000000  0.60914084
   0.42165397  0.00000000  0.31727939
   0.93041333  0.50000000  0.32518434
   0.56958667  0.00000000  0.67481566
   0.07834603  0.50000000  0.68272061
   0.93992887  0.00000000  0.07545530
   0.39847599  0.50000000  0.08185809
   0.10152401  0.00000000  0.91814191
   0.56007113  0.50000000  0.92454470
unknown system                          
           1
    13.171011    0.000000   -0.777251
     0.000000    3.121350    0.000000
    -0.104198    0.000000    9.970282
   Sr   Ir   O 
   2  10  20
Direct configuration=    20
   0.24548981  0.00000000  0.18582704
   0.25451019  0.50000000  0.81417296
   0.01181603  0.50000000 -0.00815473
   0.48818397  0.00000000  0.00815473
   0.00766030  0.00000000  0.26072213
   0.50481820  0.50000000  0.25926526
  -0.00481820  0.00000000  0.74073474
   0.49233970  0.50000000  0.73927787
   0.34381863  0.00000000  0.47749870
   0.84575421  0.50000000  0.47845933
   0.65424579  0.00000000  0.52154067
   0.15618137  0.50000000  0.52250130
   0.57832662  0.00000000  0.17921926
   0.09401055  0.50000000  0.17927936
   0.40598945  0.00000000  0.82072064
   0.92167338  0.50000000  0.82078074
   0.09139349  0.00000000  0.42901170
   0.58936221  0.50000000  0.42558701
   0.91063779  0.00000000  0.57441299
   0.40860651  0.50000000  0.57098830
   0.76496388  0.00000000  0.39254414
   0.26344632  0.50000000  0.37709231
   0.23655368  0.00000000  0.62290769
   0.73503612  0.50000000  0.60745586
   0.42159313  0.00000000  0.31581092
   0.93019846  0.50000000  0.32361474
   0.56980154  0.00000000  0.67638526
   0.07840687  0.50000000  0.68418908
   0.94271621  0.00000000  0.07518711
   0.39561783  0.50000000  0.08228922
   0.10438217  0.00000000  0.91771078
   0.55728379  0.50000000  0.92481289
unknown system                          
           1
    13.155268    0.000000   -0.778183
     0.000000    3.125650    0.000000
    -0.105105    0.000000    9.964746
   Sr   Ir   O 
   2  10  20
Direct configuration=    21
   0.24584041  0.00000000  0.18541975
   0.25415959  0.50000000  0.81458025
   0.01301860  0.50000000 -0.00891037
   0.48698140  0.00000000  0.00891037
   0.00859438  0.00000000  0.26010088
   0.50536160  0.50000000  0.25922981
  -0.00536160  0.00000000  0.74077019
   0.49140562  0.50000000  0.73989912
   0.34385264  0.00000000  0.47675790
   0.84640181  0.50000000  0.47824546
   0.65359819  0.00000000  0.52175454
   0.15614736  0.50000000  0.52324210
   0.57875751  0.00000000  0.17963252
   0.09511645  0.50000000  0.17914104
   0.40488355  0.00000000  0.82085896
   0.92124249  0.50000000  0.82036748
   0.09071550  0.00000000  0.42933166
   0.58891389  0.50000000  0.42514135
   0.91108611  0.00000000  0.57485865
   0.40928450  0.50000000  0.57066834
   0.76521680  0.00000000  0.39349502
   0.26348237  0.50000000  0.37744703
   0.23651763  0.00000000  0.62255297
   0.73478320  0.50000000  0.60650498
   0.42155888  0.00000000  0.31498218