unknown system                          
           1
    12.822446    0.000000   -0.583668
     0.000000    3.151515    0.000000
     0.040938    0.000000    9.872710
   Sr   Ir   O 
   3  10  20
Direct configuration=     1
   0.25828612  0.00000000  0.18025360
   0.74034409  0.00000000  0.84444152
   0.23911578  0.50000000  0.81527022
   0.02285017  0.50000000  0.98830939
   0.49733682  0.00000000  0.00861261
   0.00764782  0.00000000  0.24853126
   0.51421329  0.50000000  0.26568632
   0.97490962  0.00000000  0.74013858
   0.48665234  0.50000000  0.74808541
   0.34034803  0.00000000  0.48308170
   0.84112614  0.50000000  0.46662681
   0.65941089  0.00000000  0.52672414
   0.14632469  0.50000000  0.51847961
   0.58932441  0.00000000  0.17972128
   0.09864281  0.50000000  0.17400169
   0.40133853  0.00000000  0.82941609
   0.90476198  0.50000000  0.83323140
   0.08699773  0.00000000  0.42156558
   0.59563138  0.50000000  0.43390330
   0.90914259  0.00000000  0.55490879
   0.39987165  0.50000000  0.58125824
   0.76347523  0.00000000  0.37748048
   0.26580394  0.50000000  0.37891575
   0.22088502  0.00000000  0.62026614
   0.73642374  0.50000000  0.63161212
   0.43191164  0.00000000  0.32894259
   0.92326731  0.50000000  0.30378928
   0.57222512  0.00000000  0.69087189
   0.05831887  0.50000000  0.67753288
   0.93642637  0.00000000  0.05487971
   0.40881792  0.50000000  0.08678544
   0.13921661  0.00000000  0.95539209
   0.58235137  0.50000000  0.92708409
