 running on   96 total cores
 distrk:  each k-point on   96 cores,    1 groups
 distr:  one band on   12 cores,    8 groups
 using from now: INCAR     
 vasp.5.4.1 24Jun15 (build Nov 16 2016 17:59:42) complex                        
  
 POSCAR found type information on POSCAR  Sr Ir O 
 POSCAR found :  3 types and      28 ions
 scaLAPACK will be used
 LDA part: xc-table for Pade appr. of Perdew
 POSCAR, INCAR and KPOINTS ok, starting setup
 WARNING: small aliasing (wrap around) errors must be expected
 FFT: planning ...
 WAVECAR not read
 entering main loop
       N       E                     dE             d eps       ncg     rms          rms(c)
DAV:   1     0.181012998968E+04    0.18101E+04   -0.87017E+04 72024   0.120E+03
DAV:   2     0.189110207098E+02   -0.17912E+04   -0.16795E+04 73856   0.374E+02
DAV:   3    -0.210254543769E+03   -0.22917E+03   -0.22002E+03 97336   0.136E+02
DAV:   4    -0.221257219337E+03   -0.11003E+02   -0.10908E+02 94752   0.305E+01
DAV:   5    -0.221999863238E+03   -0.74264E+00   -0.74172E+00128464   0.588E+00    0.128E+02
RMM:   6    -0.189914368726E+03    0.32085E+02   -0.20822E+02 80173   0.363E+01    0.618E+01
RMM:   7    -0.210624617341E+03   -0.20710E+02   -0.51172E+01 79437   0.173E+01    0.699E+01
RMM:   8    -0.192064607624E+03    0.18560E+02   -0.18687E+01 79734   0.116E+01    0.340E+01
RMM:   9    -0.186863371656E+03    0.52012E+01   -0.18896E+01 79096   0.108E+01    0.240E+01
RMM:  10    -0.184074245726E+03    0.27891E+01   -0.36266E+00 85593   0.442E+00    0.121E+01
RMM:  11    -0.183372845882E+03    0.70140E+00   -0.63399E-01 90574   0.190E+00    0.108E+01
RMM:  12    -0.183254834815E+03    0.11801E+00   -0.22121E-01 91746   0.113E+00    0.782E+00
RMM:  13    -0.183214976958E+03    0.39858E-01   -0.18122E-01 84381   0.110E+00    0.536E+00
RMM:  14    -0.183308568801E+03   -0.93592E-01   -0.25542E-01 83756   0.127E+00    0.466E+00
RMM:  15    -0.183221240991E+03    0.87328E-01   -0.91627E-02 83112   0.771E-01    0.177E+00
RMM:  16    -0.183233806366E+03   -0.12565E-01   -0.31758E-02 88905   0.433E-01    0.151E+00
RMM:  17    -0.183230190123E+03    0.36162E-02   -0.61983E-03 94459   0.183E-01    0.122E+00
RMM:  18    -0.183235362995E+03   -0.51729E-02   -0.70065E-03 88838   0.202E-01    0.840E-01
RMM:  19    -0.183241105100E+03   -0.57421E-02   -0.76617E-03 86774   0.206E-01    0.616E-01
RMM:  20    -0.183242154678E+03   -0.10496E-02   -0.29236E-03 87009   0.130E-01    0.344E-01
RMM:  21    -0.183243132942E+03   -0.97826E-03   -0.70928E-04 91649   0.642E-02    0.309E-01
RMM:  22    -0.183244981409E+03   -0.18485E-02   -0.82685E-04 87015   0.743E-02    0.251E-01
RMM:  23    -0.183245787752E+03   -0.80634E-03   -0.63403E-04 84372   0.646E-02    0.165E-01
RMM:  24    -0.183246272635E+03   -0.48488E-03   -0.37094E-04 86286   0.476E-02    0.137E-01
RMM:  25    -0.183246484171E+03   -0.21154E-03   -0.16333E-04 86004   0.316E-02    0.738E-02
RMM:  26    -0.183246589965E+03   -0.10579E-03   -0.62918E-05 76791   0.212E-02    0.430E-02
RMM:  27    -0.183246634547E+03   -0.44582E-04   -0.32949E-05 64203   0.154E-02    0.326E-02
RMM:  28    -0.183246674274E+03   -0.39727E-04   -0.19746E-05 55904   0.127E-02    0.256E-02
RMM:  29    -0.183246677380E+03   -0.31062E-05   -0.76736E-06 50341   0.918E-03
   1 F= -.18324668E+03 E0= -.18324668E+03  d E =0.000000E+00  mag=    -0.0009
