SrIr2O4 prototype                       
           1
     5.405057   -0.008011   -0.143355
    -0.011712    5.199514    0.008669
    -0.397078    0.002458   14.796265
   Sr   Ir   O 
   4   8  16
Direct configuration=     1
   0.46166590  0.05398148  0.11604976
   0.11965653  0.47226810  0.37576815
   0.43956171  0.95241953  0.61576100
   0.09613724  0.53590204  0.88432406
   0.94882872  0.01485619  0.00513159
   0.60629949  0.54221758  0.99677078
   0.00523755  0.98531588  0.25326062
   0.56984635  0.53911735  0.24770558
   0.64301476  0.45733716  0.49850539
   0.93109374  0.99137471  0.50320777
   0.55139373  0.46105753  0.74982770
   0.99053497  0.02162528  0.75429247
   0.97464952  0.62359760  0.51985234
   0.37918676  0.81622255  0.97473385
   0.97783545  0.95788969  0.12751120
   0.62406695  0.52871697  0.37416566
   0.57765792  0.56491444  0.12104402
   0.96920997  0.97608740  0.37895029
   0.29634936  0.77183094  0.25863751
   0.78087759  0.25789359  0.23943867
   0.38175184  0.21191647  0.47698221
   0.16114876  0.30913478  0.02334744
   0.57181785  0.43156800  0.62270916
   0.96090074  0.03175684  0.88021642
   0.96224749  0.03917675  0.62732781
   0.59212024  0.46899858  0.87569015
   0.75812928  0.75073046  0.74366457
   0.27806758  0.23209211  0.75512385
