 running on   96 total cores
 distrk:  each k-point on   96 cores,    1 groups
 distr:  one band on   12 cores,    8 groups
 using from now: INCAR     
 vasp.5.4.1 24Jun15 (build Nov 16 2016 17:59:42) complex                        
  
 POSCAR found type information on POSCAR  Sr Ir O 
 POSCAR found :  3 types and      32 ions
 scaLAPACK will be used

 ----------------------------------------------------------------------------- 
|                                                                             |
|  ADVICE TO THIS USER RUNNING 'VASP/VAMP'   (HEAR YOUR MASTER'S VOICE ...):  |
|                                                                             |
|      You have a (more or less) 'large supercell' and for larger cells       |
|      it might be more efficient to use real space projection opertators     |
|      So try LREAL= Auto  in the INCAR   file.                               |
|      Mind: At the moment your POTCAR file does not contain real space       |
|       projectors, and has to be modified,  BUT if you                       |
|      want to do an extremely  accurate calculation you might also keep the  |
|      reciprocal projection scheme          (i.e. LREAL=.FALSE.)             |
|                                                                             |
 ----------------------------------------------------------------------------- 

 LDA part: xc-table for Pade appr. of Perdew
 POSCAR, INCAR and KPOINTS ok, starting setup
 FFT: planning ...
 WAVECAR not read
 entering main loop
       N       E                     dE             d eps       ncg     rms          rms(c)
DAV:   1     0.233668621698E+04    0.23367E+04   -0.97677E+04  6920   0.129E+03
DAV:   2     0.666232166165E+02   -0.22701E+04   -0.21455E+04  7112   0.423E+02
DAV:   3    -0.222172864386E+03   -0.28880E+03   -0.27839E+03  9112   0.159E+02
DAV:   4    -0.236337311556E+03   -0.14164E+02   -0.13852E+02  9112   0.341E+01
DAV:   5    -0.236944989107E+03   -0.60768E+00   -0.60560E+00 10904   0.603E+00    0.148E+02
RMM:   6    -0.205008643875E+03    0.31936E+02   -0.20452E+02  7203   0.356E+01    0.828E+01
RMM:   7    -0.216059601464E+03   -0.11051E+02   -0.46464E+01  7092   0.183E+01    0.100E+02
RMM:   8    -0.203471606506E+03    0.12588E+02   -0.53534E+00  6957   0.685E+00    0.210E+01
RMM:   9    -0.203178300389E+03    0.29331E+00   -0.13851E+01  6923   0.967E+00    0.211E+01
RMM:  10    -0.201420243745E+03    0.17581E+01   -0.36764E+00  7082   0.482E+00    0.136E+01
RMM:  11    -0.201406203432E+03    0.14040E-01   -0.12850E+00  6934   0.295E+00    0.126E+01
RMM:  12    -0.201323956801E+03    0.82247E-01   -0.40880E-01  6970   0.168E+00    0.674E+00
RMM:  13    -0.201403221398E+03   -0.79265E-01   -0.19471E-01  7055   0.106E+00    0.583E+00
RMM:  14    -0.201600417342E+03   -0.19720E+00   -0.19729E-01  7060   0.981E-01    0.553E+00
RMM:  15    -0.201725405926E+03   -0.12499E+00   -0.19040E-01  7010   0.889E-01    0.369E+00
RMM:  16    -0.201795240869E+03   -0.69835E-01   -0.18431E-01  7000   0.784E-01    0.305E+00
RMM:  17    -0.201800273823E+03   -0.50330E-02   -0.42656E-02  7362   0.396E-01    0.275E+00
RMM:  18    -0.201799745817E+03    0.52801E-03   -0.95716E-03  7139   0.237E-01    0.180E+00
RMM:  19    -0.201797947450E+03    0.17984E-02   -0.50368E-03  7056   0.173E-01    0.153E+00
RMM:  20    -0.201797691721E+03    0.25573E-03   -0.16504E-03  7642   0.978E-02    0.106E+00
RMM:  21    -0.201799045722E+03   -0.13540E-02   -0.14192E-03  7340   0.938E-02    0.715E-01
RMM:  22    -0.201800683500E+03   -0.16378E-02   -0.15538E-03  7048   0.107E-01    0.335E-01
RMM:  23    -0.201801929019E+03   -0.12455E-02   -0.10498E-03  7137   0.855E-02    0.240E-01
RMM:  24    -0.201802458047E+03   -0.52903E-03   -0.69417E-04  7228   0.667E-02    0.170E-01
RMM:  25    -0.201803035111E+03   -0.57706E-03   -0.81445E-04  6930   0.726E-02    0.210E-01
RMM:  26    -0.201803145459E+03   -0.11035E-03   -0.42715E-04  7067   0.511E-02    0.164E-01
RMM:  27    -0.201803291857E+03   -0.14640E-03   -0.13741E-04  7514   0.294E-02    0.129E-01
RMM:  28    -0.201803395898E+03   -0.10404E-03   -0.86645E-05  6991   0.237E-02    0.938E-02
RMM:  29    -0.201803439661E+03   -0.43763E-04   -0.50156E-05  6988   0.194E-02    0.339E-02
RMM:  30    -0.201803459787E+03   -0.20126E-04   -0.25216E-05  7270   0.137E-02    0.214E-02
RMM:  31    -0.201803467694E+03   -0.79076E-05   -0.11969E-05  7498   0.897E-03    0.354E-02
RMM:  32    -0.201803471942E+03   -0.42480E-05   -0.56539E-06  6985   0.683E-03    0.338E-02
RMM:  33    -0.201803471429E+03    0.51317E-06   -0.25002E-06  6903   0.473E-03    0.286E-02
RMM:  34    -0.201803472367E+03   -0.93791E-06   -0.70497E-07  5957   0.243E-03    0.243E-02
RMM:  35    -0.201803472896E+03   -0.52888E-06   -0.64538E-07  6074   0.218E-03    0.186E-02
RMM:  36    -0.201803473010E+03   -0.11419E-06   -0.22508E-07  4390   0.148E-03    0.141E-02
RMM:  37    -0.201803473213E+03   -0.20283E-06   -0.33293E-07  4816   0.156E-03    0.937E-03
RMM:  38    -0.201803473349E+03   -0.13629E-06   -0.28134E-07  4529   0.154E-03    0.334E-03
RMM:  39    -0.201803473402E+03   -0.52882E-07   -0.94999E-08  4100   0.102E-03
   1 F= -.20180347E+03 E0= -.20180209E+03  d E =-.201803E+03  mag=     0.0251
 curvature:   0.00 expect dE= 0.000E+00 dE for cont linesearch  0.000E+00
 trial: gam= 0.00000 g(F)=  0.166E+02 g(S)=  0.707E+02 ort = 0.000E+00 (trialstep = 0.100E+01)
 search vector abs. value=  0.873E+02
 bond charge predicted
       N       E                     dE             d eps       ncg     rms          rms(c)
DAV:   1    -0.329526564936E+03   -0.12772E+03   -0.11254E+04  7088   0.348E+02    0.231E+02
RMM:   2    -0.292500084557E+03    0.37026E+02   -0.10522E+03  7289   0.890E+01    0.143E+02
RMM:   3    -0.246065199493E+03    0.46435E+02   -0.20657E+02  7677   0.359E+01    0.121E+02
RMM:   4    -0.221328231808E+03    0.24737E+02   -0.93452E+01  7383   0.238E+01    0.117E+02
RMM:   5    -0.216697776334E+03    0.46305E+01   -0.37582E+01  8090   0.124E+01    0.102E+02
RMM:   6    -0.174045900819E+03    0.42652E+02   -0.22472E+01  7094   0.122E+01    0.917E+01
RMM:   7    -0.174893889079E+03   -0.84799E+00   -0.78258E+00  7805   0.603E+00    0.843E+01
RMM:   8    -0.172077846754E+03    0.28160E+01   -0.59750E+00  7396   0.554E+00    0.766E+01
RMM:   9    -0.170150529431E+03    0.19273E+01   -0.19426E+01  8080   0.900E+00    0.403E+01
RMM:  10    -0.172709895508E+03   -0.25594E+01   -0.12586E+01  7597   0.806E+00    0.372E+01
RMM:  11    -0.166755855015E+03    0.59540E+01   -0.37818E+00  7704   0.441E+00    0.230E+01
RMM:  12    -0.165679212321E+03    0.10766E+01   -0.87622E-01  7493   0.239E+00    0.196E+01
RMM:  13    -0.165305071286E+03    0.37414E+00   -0.14815E+00  7698   0.264E+00    0.147E+01
RMM:  14    -0.164943423438E+03    0.36165E+00   -0.40501E-01  8668   0.125E+00    0.120E+01
RMM:  15    -0.164833967523E+03    0.10946E+00   -0.34825E-01  8158   0.108E+00    0.108E+01
RMM:  16    -0.164619025305E+03    0.21494E+00   -0.16499E-01  7717   0.916E-01    0.865E+00
RMM:  17    -0.164432844740E+03    0.18618E+00   -0.19137E-01  7981   0.837E-01    0.576E+00
RMM:  18    -0.164327723729E+03    0.10512E+00   -0.10050E-01  7852   0.720E-01    0.375E+00
RMM:  19    -0.164298614111E+03    0.29110E-01   -0.23822E-02  9197   0.290E-01    0.316E+00
RMM:  20    -0.164296017109E+03    0.25970E-02   -0.20614E-02  7479   0.283E-01    0.309E+00
RMM:  21    -0.164275490828E+03    0.20526E-01   -0.65398E-03  7843   0.191E-01    0.247E+00
RMM:  22    -0.164274383691E+03    0.11071E-02   -0.33434E-03  8871   0.104E-01    0.238E+00
RMM:  23    -0.164269197435E+03    0.51863E-02   -0.48364E-03  7272   0.171E-01    0.242E+00
RMM:  24    -0.164256488490E+03    0.12709E-01   -0.91927E-03  7189   0.206E-01    0.201E+00
RMM:  25    -0.164249143578E+03    0.73449E-02   -0.10092E-02  8058   0.200E-01    0.145E+00
RMM:  26    -0.164245917159E+03    0.32264E-02   -0.29984E-03  7729   0.135E-01    0.104E+00
RMM:  27    -0.164245817740E+03    0.99419E-04   -0.16200E-03  8633   0.789E-02    0.835E-01
RMM:  28    -0.164246247251E+03   -0.42951E-03   -0.23461E-04  9272   0.351E-02    0.828E-01
RMM:  29    -0.164244721763E+03    0.15255E-02   -0.95228E-04  7321   0.651E-02    0.656E-01
RMM:  30    -0.164244462382E+03    0.25938E-03   -0.40072E-04  8561   0.428E-02    0.555E-01
RMM:  31    -0.164244124168E+03    0.33821E-03   -0.26640E-04  7148   0.408E-02    0.384E-01
RMM:  32    -0.164244006422E+03    0.11775E-03   -0.20971E-04  7424   0.359E-02    0.251E-01
RMM:  33    -0.164243962078E+03    0.44345E-04   -0.17948E-04  7609   0.329E-02    0.134E-01
RMM:  34    -0.164243953218E+03    0.88600E-05   -0.10620E-04  8579   0.218E-02    0.599E-02
RMM:  35    -0.164243958125E+03   -0.49072E-05   -0.27919E-05  8736   0.112E-02    0.552E-02
RMM:  36    -0.164243951958E+03    0.61664E-05   -0.10265E-05  8377   0.654E-03    0.281E-02
RMM:  37    -0.164243952194E+03   -0.23579E-06   -0.59254E-06  8171   0.537E-03    0.137E-02
 num prob RMM:  38    -0.164243952625E+03   -0.43102E-06   -0.22756E-06  8382   0.300E-03    0.872E-03
RMM:  39    -0.164243952478E+03    0.14707E-06   -0.10217E-06  7104   0.193E-03    0.551E-03
 num prob RMM:  40    -0.164243952798E+03   -0.32008E-06   -0.44686E-07  5483   0.154E-03    0.445E-03
RMM:  41    -0.164243953117E+03   -0.31895E-06   -0.45675E-07  5571   0.152E-03    0.383E-03
 num prob RMM:  42    -0.164243953486E+03   -0.36867E-06   -0.36497E-07  5106   0.145E-03    0.370E-03
RMM:  43    -0.164243953968E+03   -0.48164E-06   -0.79501E-07  6084   0.199E-03    0.392E-03
RMM:  44    -0.164243954289E+03   -0.32124E-06   -0.20754E-06  6485   0.327E-03    0.381E-03
RMM:  45    -0.164243954798E+03   -0.50953E-06   -0.19303E-06  6591   0.292E-03    0.299E-03
RMM:  46    -0.164243955257E+03   -0.45919E-06   -0.20197E-06  6580   0.302E-03    0.324E-03
RMM:  47    -0.164243955520E+03   -0.26208E-06   -0.22670E-06  6521   0.318E-03    0.233E-03
RMM:  48    -0.164243956147E+03   -0.62730E-06   -0.10348E-06  6405   0.219E-03    0.129E-03
RMM:  49    -0.164243956339E+03   -0.19186E-06   -0.81293E-07  6022   0.181E-03    0.116E-03
RMM:  50    -0.164243956443E+03   -0.10392E-06   -0.81322E-07  5990   0.191E-03    0.970E-04
RMM:  51    -0.164243956615E+03   -0.17269E-06   -0.47405E-07  5352   0.149E-03    0.777E-04
RMM:  52    -0.164243956716E+03   -0.10020E-06   -0.29360E-07  4572   0.124E-03    0.573E-04
RMM:  53    -0.164243956769E+03   -0.53715E-07   -0.24134E-07  4211   0.117E-03
   2 F= -.16424396E+03 E0= -.16424183E+03  d E =0.375595E+02  mag=    -0.0050
 trial-energy change:   37.559517  1 .order   19.078105  -87.329660  125.485869
 step:   0.3008(harm=  0.4104)  dis= 0.07582  next Energy=  -214.433764 (dE=-0.126E+02)
 bond charge predicted
       N       E                     dE             d eps       ncg     rms          rms(c)
DAV:   1    -0.326201597629E+03   -0.16196E+03   -0.62533E+03  6960   0.276E+02    0.122E+02
RMM:   2    -0.232106631096E+03    0.94095E+02   -0.39420E+02  6912   0.588E+01    0.517E+01
RMM:   3    -0.220541428812E+03    0.11565E+02   -0.65507E+01  6979   0.260E+01    0.317E+01
RMM:   4    -0.238335934438E+03   -0.17795E+02   -0.40112E+01  7284   0.148E+01    0.104E+02
RMM:   5    -0.230506114564E+03    0.78298E+01   -0.48679E+00  7878   0.448E+00    0.997E+01
RMM:   6    -0.230424531143E+03    0.81583E-01   -0.62332E-01  8879   0.153E+00    0.981E+01
RMM:   7    -0.226676871160E+03    0.37477E+01   -0.43541E+00  6971   0.526E+00    0.687E+01
RMM:   8    -0.214365524828E+03    0.12311E+02   -0.14013E+01  6993   0.869E+00    0.281E+01
RMM:   9    -0.213816880510E+03    0.54864E+00   -0.41083E+00  7403   0.487E+00    0.323E+01
RMM:  10    -0.212102253001E+03    0.17146E+01   -0.11728E+00  7568   0.261E+00    0.247E+01
RMM:  11    -0.211926992610E+03    0.17526E+00   -0.24303E-01  8713   0.120E+00    0.229E+01
RMM:  12    -0.211898993107E+03    0.28000E-01   -0.26302E-01  7422   0.121E+00    0.172E+01
RMM:  13    -0.212460142281E+03   -0.56115E+00   -0.85393E-01  7424   0.210E+00    0.955E+00
RMM:  14    -0.212309058801E+03    0.15108E+00   -0.10320E-01  8360   0.883E-01    0.793E+00
RMM:  15    -0.213054963676E+03   -0.74590E+00   -0.17312E-01  7566   0.925E-01    0.144E+01
RMM:  16    -0.212356446901E+03    0.69852E+00   -0.10207E-01  7344   0.742E-01    0.947E+00
RMM:  17    -0.211935941465E+03    0.42051E+00   -0.13967E-01  7205   0.942E-01    0.649E+00
RMM:  18    -0.211802714793E+03    0.13323E+00   -0.62974E-02  7587   0.591E-01    0.570E+00
RMM:  19    -0.211744470010E+03    0.58245E-01   -0.27033E-02  8504   0.312E-01    0.595E+00
RMM:  20    -0.211658473298E+03    0.85997E-01   -0.20644E-02  7702   0.275E-01    0.528E+00
RMM:  21    -0.211641227054E+03    0.17246E-01   -0.10257E-02  7904   0.202E-01    0.505E+00
RMM:  22    -0.211634468216E+03    0.67588E-02   -0.22094E-03  9780   0.802E-02    0.484E+00
RMM:  23    -0.211634533504E+03   -0.65288E-04   -0.51358E-04 11589   0.242E-02    0.485E+00
RMM:  24    -0.211626564372E+03    0.79691E-02   -0.70635E-04  7985   0.564E-02    0.469E+00
RMM:  25    -0.211638294551E+03   -0.11730E-01   -0.19966E-03  6961   0.107E-01    0.510E+00
RMM:  26    -0.211609765867E+03    0.28529E-01   -0.64988E-03  6953   0.181E-01    0.457E+00
RMM:  27    -0.211564760534E+03    0.45005E-01   -0.24187E-02  6930   0.345E-01    0.258E+00
RMM:  28    -0.211554863585E+03    0.98969E-02   -0.10791E-02  7815   0.227E-01    0.200E+00
RMM:  29    -0.211555898695E+03   -0.10351E-02   -0.16476E-03  7663   0.924E-02    0.236E+00
RMM:  30    -0.211552995037E+03    0.29037E-02   -0.25469E-03  7187   0.106E-01    0.207E+00
RMM:  31    -0.211551648125E+03    0.13469E-02   -0.61096E-04  7777   0.581E-02    0.210E+00
RMM:  32    -0.211552909069E+03   -0.12609E-02   -0.21772E-03  7018   0.985E-02    0.184E+00
RMM:  33    -0.211550715032E+03    0.21940E-02   -0.43986E-04  7971   0.521E-02    0.174E+00
RMM:  34    -0.211546989996E+03    0.37250E-02   -0.63715E-04  7054   0.571E-02    0.158E+00
RMM:  35    -0.211544652623E+03    0.23374E-02   -0.15187E-03  7037   0.855E-02    0.162E+00
RMM:  36    -0.211544665291E+03   -0.12669E-04   -0.36144E-04  7495   0.491E-02    0.159E+00
RMM:  37    -0.211544051136E+03    0.61416E-03   -0.27223E-04  7067   0.365E-02    0.151E+00
RMM:  38    -0.211543991663E+03    0.59473E-04   -0.72047E-05  7525   0.213E-02    0.149E+00
RMM:  39    -0.211543470892E+03    0.52077E-03   -0.53303E-05  7971   0.153E-02    0.143E+00
RMM:  40    -0.211543392703E+03    0.78189E-04   -0.30403E-05  7377   0.130E-02    0.139E+00
RMM:  41    -0.211542928490E+03    0.46421E-03   -0.26664E-05  7325   0.120E-02    0.135E+00
RMM:  42    -0.211541998221E+03    0.93027E-03   -0.11541E-04  7181   0.251E-02    0.126E+00
RMM:  43    -0.211540584882E+03    0.14133E-02   -0.44038E-04  7161   0.532E-02    0.105E+00
RMM:  44    -0.211539915577E+03    0.66930E-03   -0.33197E-04  7684   0.468E-02    0.879E-01
RMM:  45    -0.211539743850E+03    0.17173E-03   -0.12165E-04  8827   0.249E-02    0.812E-01
RMM:  46    -0.211539642277E+03    0.10157E-03   -0.36744E-05  8791   0.131E-02    0.775E-01
RMM:  47    -0.211539617799E+03    0.24477E-04   -0.30906E-05  7431   0.140E-02    0.734E-01
RMM:  48    -0.211539321377E+03    0.29642E-03   -0.70191E-05  7311   0.215E-02    0.639E-01
RMM:  49    -0.211539090874E+03    0.23050E-03   -0.82722E-05  7518   0.233E-02    0.549E-01
RMM:  50    -0.211538948943E+03    0.14193E-03   -0.56714E-05  8172   0.178E-02    0.488E-01
RMM:  51    -0.211538801261E+03    0.14768E-03   -0.65235E-05  7355   0.206E-02    0.399E-01
RMM:  52    -0.211538712889E+03    0.88372E-04   -0.63193E-05  7532   0.207E-02    0.318E-01
RMM:  53    -0.211538706234E+03    0.66555E-05   -0.24438E-05  8531   0.120E-02    0.289E-01
RMM:  54    -0.211538645061E+03    0.61173E-04   -0.36323E-05  7372   0.150E-02    0.220E-01
RMM:  55    -0.211538641798E+03    0.32632E-05   -0.10600E-05  8445   0.827E-03    0.207E-01
RMM:  56    -0.211538590723E+03    0.51075E-04   -0.32014E-05  7260   0.142E-02    0.138E-01
RMM:  57    -0.211538560734E+03    0.29989E-04   -0.34368E-05  7545   0.150E-02    0.761E-02
RMM:  58    -0.211538564476E+03   -0.37429E-05   -0.66684E-06  9054   0.635E-03    0.742E-02
RMM:  59    -0.211538565853E+03   -0.13767E-05   -0.10241E-06  6814   0.214E-03    0.772E-02
WARNING in EDDRMM: call to ZHEGV failed, returncode =   6  3 15
 num prob RMM:  60    -0.211538565095E+03    0.75770E-06   -0.36934E-07  4898   0.131E-03    0.735E-02
RMM:  61    -0.211538565910E+03   -0.81447E-06   -0.51137E-07  5317   0.175E-03    0.709E-02
RMM:  62    -0.211538553730E+03    0.12180E-04   -0.24236E-05  6993   0.133E-02    0.181E-02
RMM:  63    -0.211538556600E+03   -0.28694E-05   -0.26971E-06  7292   0.544E-03    0.171E-02
RMM:  64    -0.211538556831E+03   -0.23120E-06   -0.69540E-07  6080   0.180E-03    0.163E-02
RMM:  65    -0.211538556912E+03   -0.81371E-07   -0.76708E-07  6430   0.206E-03
   3 F= -.21153856E+03 E0= -.21153642E+03  d E =-.973508E+01  mag=    -0.1333
 curvature:  -0.20 expect dE=-0.136E+01 dE for cont linesearch -0.503E+00
 ZBRENT: interpolating
 opt :   0.2570  next Energy=  -211.864743 (dE=-0.101E+02)
 bond charge predicted
       N       E                     dE             d eps       ncg     rms          rms(c)
DAV:   1    -0.212439085339E+03   -0.90053E+00   -0.27461E+01  7320   0.186E+01    0.678E+00
RMM:   2    -0.212163524740E+03    0.27556E+00   -0.14175E+00  6987   0.365E+00    0.598E+00
RMM:   3    -0.212115581501E+03    0.47943E-01   -0.18558E-01  6993   0.132E+00    0.633E+00
RMM:   4    -0.212134753658E+03   -0.19172E-01   -0.12863E-01  7018   0.909E-01    0.500E+00
RMM:   5    -0.212413781914E+03   -0.27903E+00   -0.23404E-01  7025   0.120E+00    0.771E+00
RMM:   6    -0.212033752562E+03    0.38003E+00   -0.12167E-01  7017   0.978E-01    0.301E+00
RMM:   7    -0.211982767352E+03    0.50985E-01   -0.45127E-02  6985   0.601E-01    0.203E+00
RMM:   8    -0.211949305430E+03    0.33462E-01   -0.24109E-02  7260   0.366E-01    0.116E+00
RMM:   9    -0.211940365343E+03    0.89401E-02   -0.12736E-02  7067   0.271E-01    0.825E-01
RMM:  10    -0.211938808088E+03    0.15573E-02   -0.65590E-03  7217   0.185E-01    0.563E-01
RMM:  11    -0.211943264768E+03   -0.44567E-02   -0.28850E-03  7184   0.118E-01    0.562E-01
RMM:  12    -0.211946344401E+03   -0.30796E-02   -0.11249E-03  7445   0.690E-02    0.590E-01
RMM:  13    -0.211943846879E+03    0.24975E-02   -0.57748E-04  7073   0.612E-02    0.599E-01
RMM:  14    -0.211935978378E+03    0.78685E-02   -0.55110E-03  6912   0.165E-01    0.535E-01
RMM:  15    -0.211939381881E+03   -0.34035E-02   -0.27566E-02  6912   0.363E-01    0.825E-01
RMM:  16    -0.211932961282E+03    0.64206E-02   -0.86470E-03  6912   0.268E-01    0.307E-01
RMM:  17    -0.211932884979E+03    0.76303E-04   -0.19216E-03  6914   0.106E-01    0.176E-01
RMM:  18    -0.211932595489E+03    0.28949E-03   -0.62098E-04  6912   0.721E-02    0.104E-01
RMM:  19    -0.211932638114E+03   -0.42625E-04   -0.24506E-04  6938   0.331E-02    0.762E-02
RMM:  20    -0.211932564063E+03    0.74051E-04   -0.12466E-04  6922   0.298E-02    0.362E-02
RMM:  21    -0.211932570946E+03   -0.68833E-05   -0.14003E-05  7619   0.995E-03    0.262E-02
RMM:  22    -0.211932583660E+03   -0.12714E-04   -0.85353E-06  7374   0.704E-03    0.279E-02
RMM:  23    -0.211932606553E+03   -0.22893E-04   -0.92234E-06  7219   0.656E-03    0.382E-02
RMM:  24    -0.211932600502E+03    0.60511E-05   -0.30840E-06  7275   0.457E-03    0.322E-02
RMM:  25    -0.211932594353E+03    0.61488E-05   -0.42361E-06  6992   0.531E-03    0.250E-02
RMM:  26    -0.211932592650E+03    0.17034E-05   -0.10159E-05  6878   0.860E-03    0.195E-02
RMM:  27    -0.211932593193E+03   -0.54304E-06   -0.50327E-06  7204   0.606E-03    0.152E-02
RMM:  28    -0.211932593726E+03   -0.53256E-06   -0.32797E-06  7050   0.462E-03    0.125E-02
RMM:  29    -0.211932593827E+03   -0.10100E-06   -0.53550E-06  6868   0.615E-03    0.104E-02
RMM:  30    -0.211932594157E+03   -0.32999E-06   -0.13281E-06  6821   0.347E-03    0.663E-03
RMM:  31    -0.211932594587E+03   -0.43076E-06   -0.84122E-07  6320   0.222E-03    0.623E-03
RMM:  32    -0.211932594861E+03   -0.27414E-06   -0.31116E-07  4690   0.164E-03    0.577E-03
RMM:  33    -0.211932595126E+03   -0.26489E-06   -0.50406E-07  5624   0.183E-03    0.537E-03
RMM:  34    -0.211932595427E+03   -0.30024E-06   -0.48372E-07  5409   0.184E-03    0.489E-03
RMM:  35    -0.211932595625E+03   -0.19862E-06   -0.20075E-06  6810   0.384E-03    0.342E-03
RMM:  36    -0.211932596099E+03   -0.47403E-06   -0.20355E-06  6653   0.387E-03    0.262E-03
RMM:  37    -0.211932596680E+03   -0.58098E-06   -0.23281E-06  6852   0.406E-03    0.227E-03
RMM:  38    -0.211932596798E+03   -0.11765E-06   -0.51813E-06  6848   0.621E-03    0.272E-03
RMM:  39    -0.211932598086E+03   -0.12883E-05   -0.81566E-07  5968   0.323E-03    0.233E-03
RMM:  40    -0.211932598220E+03   -0.13391E-06   -0.13898E-06  6651   0.290E-03    0.203E-03
RMM:  41    -0.211932598253E+03   -0.33069E-07   -0.26284E-06  6758   0.428E-03    0.195E-03
RMM:  42    -0.211932598380E+03   -0.12724E-06   -0.34118E-06  6856   0.490E-03    0.202E-03
RMM:  43    -0.211932598964E+03   -0.58339E-06   -0.19909E-06  7003   0.369E-03    0.147E-03
RMM:  44    -0.211932599419E+03   -0.45554E-06   -0.27540E-07  4570   0.202E-03    0.112E-03
RMM:  45    -0.211932599464E+03   -0.44834E-07   -0.27685E-07  4516   0.131E-03
   4 F= -.21193260E+03 E0= -.21192979E+03  d E =-.101291E+02  mag=    -0.0328
 curvature:  -0.13 expect dE=-0.462E+00 dE for cont linesearch -0.206E-01
 ZBRENT: interpolating
 opt :   0.2429  next Energy=  -211.960039 (dE=-0.102E+02)
 bond charge predicted
       N       E                     dE             d eps       ncg     rms          rms(c)
DAV:   1    -0.212011381930E+03   -0.78783E-01   -0.28511E+00  7456   0.600E+00    0.225E+00
RMM:   2    -0.211991853037E+03    0.19529E-01   -0.14889E-01  6972   0.118E+00    0.236E+00
RMM:   3    -0.211981122600E+03    0.10730E-01   -0.20700E-02  7004   0.429E-01    0.208E+00
RMM:   4    -0.211987399381E+03   -0.62768E-02   -0.13904E-02  6980   0.305E-01    0.212E+00
RMM:   5    -0.212007970602E+03   -0.20571E-01   -0.24764E-02  6989   0.408E-01    0.264E+00
RMM:   6    -0.211964832189E+03    0.43138E-01   -0.14687E-02  6997   0.354E-01    0.783E-01
RMM:   7    -0.211960571626E+03    0.42606E-02   -0.52259E-03  7014   0.205E-01    0.440E-01
RMM:   8    -0.211959934007E+03    0.63762E-03   -0.24942E-03  7335   0.114E-01    0.358E-01
RMM:   9    -0.211959565606E+03    0.36840E-03   -0.88340E-04  7077   0.761E-02    0.252E-01
RMM:  10    -0.211959531864E+03    0.33742E-04   -0.50209E-04  7032   0.584E-02    0.140E-01
RMM:  11    -0.211959814968E+03   -0.28310E-03   -0.12594E-04  7494   0.269E-02    0.157E-01
RMM:  12    -0.211959110902E+03    0.70407E-03   -0.59093E-04  6915   0.504E-02    0.681E-02
RMM:  13    -0.211959094610E+03    0.16292E-04   -0.10858E-04  7087   0.227E-02    0.352E-02
RMM:  14    -0.211959102189E+03   -0.75784E-05   -0.28047E-05  7230   0.141E-02    0.225E-02
RMM:  15    -0.211959100642E+03    0.15465E-05   -0.63154E-06  7433   0.667E-03    0.124E-02
RMM:  16    -0.211959099028E+03    0.16144E-05   -0.44074E-06  7518   0.453E-03    0.655E-03
RMM:  17    -0.211959099926E+03   -0.89779E-06   -0.10385E-06  6047   0.234E-03    0.419E-03
RMM:  18    -0.211959100208E+03   -0.28250E-06   -0.41596E-07  4958   0.141E-03    0.282E-03
RMM:  19    -0.211959100370E+03   -0.16169E-06   -0.14817E-07  4343   0.978E-04    0.270E-03
 num prob  num prob RMM:  20    -0.211959100451E+03   -0.81149E-07   -0.94780E-08  4299   0.824E-04
   5 F= -.21195910E+03 E0= -.21195616E+03  d E =-.101556E+02  mag=    -0.0240
 curvature:  -0.17 expect dE=-0.541E+00 dE for cont linesearch -0.116E-05
 trial: gam= 0.03588 g(F)=  0.112E+01 g(S)=  0.204E+01 ort = 0.243E-01 (trialstep = 0.849E+00)
 search vector abs. value=  0.327E+01
 bond charge predicted
       N       E                     dE             d eps       ncg     rms          rms(c)
DAV:   1    -0.216131783751E+03   -0.41727E+01   -0.40118E+02  6912   0.628E+01    0.125E+01
RMM:   2    -0.214939013754E+03    0.11928E+01   -0.14289E+01  6912   0.119E+01    0.101E+01
RMM:   3    -0.215033180019E+03   -0.94166E-01   -0.18372E+00  7089   0.411E+00    0.131E+01
RMM:   4    -0.214509979612E+03    0.52320E+00   -0.84083E-01  7027   0.243E+00    0.971E+00
RMM:   5    -0.213764887697E+03    0.74509E+00   -0.52201E-01  7000   0.186E+00    0.513E+00
RMM:   6    -0.213629668973E+03    0.13522E+00   -0.20003E-01  7307   0.110E+00    0.258E+00
RMM:   7    -0.213593537669E+03    0.36131E-01   -0.79724E-02  7058   0.722E-01    0.149E+00
RMM:   8    -0.213576062204E+03    0.17475E-01   -0.30389E-02  7235   0.434E-01    0.777E-01
RMM:   9    -0.213574627394E+03    0.14348E-02   -0.74182E-03  7812   0.207E-01    0.420E-01
RMM:  10    -0.213574873126E+03   -0.24573E-03   -0.43879E-03  7362   0.153E-01    0.495E-01
RMM:  11    -0.213573988076E+03    0.88505E-03   -0.17624E-03  7403   0.101E-01    0.249E-01
RMM:  12    -0.213573691499E+03    0.29658E-03   -0.55888E-04  7785   0.590E-02    0.103E-01
RMM:  13    -0.213573624402E+03    0.67098E-04   -0.24169E-04  8126   0.330E-02    0.540E-02
RMM:  14    -0.213573617120E+03    0.72813E-05   -0.63832E-05  8716   0.153E-02    0.183E-02
RMM:  15    -0.213573618785E+03   -0.16645E-05   -0.22055E-05  9502   0.743E-03    0.124E-02
RMM:  16    -0.213573620822E+03   -0.20373E-05   -0.70683E-06  8917   0.475E-03    0.536E-03
RMM:  17    -0.213573622179E+03   -0.13565E-05   -0.34134E-06  8250   0.305E-03    0.414E-03
 num prob  num prob  num prob RMM:  18    -0.213573622735E+03   -0.55649E-06   -0.14859E-06  6706   0.200E-03    0.310E-03
 num prob  num prob RMM:  19    -0.213573623038E+03   -0.30280E-06   -0.87631E-07  6280   0.183E-03    0.276E-03
 num prob  num prob  num prob  num prob  num prob  num prob  num prob RMM:  20    -0.213573623324E+03   -0.28584E-06   -0.49249E-07  5623   0.164E-03    0.225E-03
 num prob  num prob RMM:  21    -0.213573623597E+03   -0.27370E-06   -0.51431E-07  5649   0.173E-03    0.179E-03
 num prob  num prob RMM:  22    -0.213573623878E+03   -0.28050E-06   -0.64486E-07  6047   0.202E-03    0.144E-03
RMM:  23    -0.213573624067E+03   -0.18904E-06   -0.92096E-07  6612   0.234E-03    0.118E-03
 num prob  num prob  num prob  num prob  num prob  num prob  num prob  num prob RMM:  24    -0.213573624185E+03   -0.11779E-06   -0.91665E-08  4294   0.120E-03    0.102E-03
 num prob  num prob RMM:  25    -0.213573624212E+03   -0.27299E-07   -0.12513E-07  4378   0.803E-04
   6 F= -.21357362E+03 E0= -.21357142E+03  d E =-.161452E+01  mag=    -0.0069
 trial-energy change:   -1.614524  1 .order   -1.582714   -2.680603   -0.484826
 step:   1.0182(harm=  1.0359)  dis= 0.07036  next Energy=  -213.622348 (dE=-0.166E+01)
 bond charge predicted
       N       E                     dE             d eps       ncg     rms          rms(c)
DAV:   1    -0.213736984091E+03   -0.16336E+00   -0.16425E+01  6912   0.128E+01    0.260E+00
RMM:   2    -0.213704194123E+03    0.32790E-01   -0.52662E-01  6914   0.235E+00    0.307E+00
RMM:   3    -0.213702464603E+03    0.17295E-02   -0.63284E-02  7064   0.761E-01    0.343E+00
RMM:   4    -0.213659567137E+03    0.42897E-01   -0.45920E-02  6938   0.584E-01    0.224E+00
RMM:   5    -0.213634682969E+03    0.24884E-01   -0.27285E-02  6967   0.439E-01    0.124E+00
RMM:   6    -0.213630588827E+03    0.40941E-02   -0.15763E-02  7084   0.332E-01    0.993E-01
RMM:   7    -0.213624531207E+03    0.60576E-02   -0.56939E-03  7053   0.200E-01    0.277E-01
RMM:   8    -0.213623877273E+03    0.65393E-03   -0.16177E-03  7509   0.996E-02    0.160E-01
RMM:   9    -0.213623774393E+03    0.10288E-03   -0.38308E-04  7547   0.483E-02    0.849E-02
RMM:  10    -0.213623766895E+03    0.74980E-05   -0.12823E-04  7829   0.256E-02    0.662E-02
RMM:  11    -0.213623762984E+03    0.39114E-05   -0.55748E-05  7601   0.184E-02    0.304E-02
RMM:  12    -0.213623761049E+03    0.19349E-05   -0.20494E-05  8155   0.101E-02    0.145E-02
RMM:  13    -0.213623762061E+03   -0.10124E-05   -0.69337E-06  8570   0.558E-03    0.501E-03
RMM:  14    -0.213623762471E+03   -0.41025E-06   -0.19915E-06  8004   0.248E-03    0.293E-03
WARNING in EDDRMM: call to ZHEGV failed, returncode =   6  3 15
 num prob RMM:  15    -0.213623762693E+03   -0.22197E-06   -0.59502E-07  5638   0.144E-03    0.216E-03
 num prob  num prob  num prob RMM:  16    -0.213623762756E+03   -0.62570E-07   -0.24364E-07  4844   0.105E-03
   7 F= -.21362376E+03 E0= -.21362165E+03  d E =-.166466E+01  mag=    -0.0075
 curvature:  -0.53 expect dE=-0.108E+01 dE for cont linesearch -0.538E-07
 trial: gam= 0.64887 g(F)=  0.172E+01 g(S)=  0.322E+00 ort = 0.575E-03 (trialstep = 0.845E+00)
 search vector abs. value=  0.342E+01
 bond charge predicted
       N       E                     dE             d eps       ncg     rms          rms(c)
DAV:   1    -0.215234062940E+03   -0.16103E+01   -0.49229E+02  6912   0.673E+01    0.116E+01
RMM:   2    -0.216249707521E+03   -0.10156E+01   -0.19069E+01  6930   0.139E+01    0.112E+01
RMM:   3    -0.215135376652E+03    0.11143E+01   -0.19610E+00  7011   0.448E+00    0.847E+00
RMM:   4    -0.215248321819E+03   -0.11295E+00   -0.68130E-01  7126   0.214E+00    0.102E+01
RMM:   5    -0.214682384977E+03    0.56594E+00   -0.30725E-01  7036   0.142E+00    0.444E+00
RMM:   6    -0.214554755811E+03    0.12763E+00   -0.17799E-01  6953   0.110E+00    0.232E+00
RMM:   7    -0.214543865781E+03    0.10890E-01   -0.93316E-02  7166   0.751E-01    0.192E+00
RMM:   8    -0.214521274416E+03    0.22591E-01   -0.30364E-02  7180   0.450E-01    0.490E-01
RMM:   9    -0.214519612872E+03    0.16615E-02   -0.57006E-03  8567   0.183E-01    0.288E-01
RMM:  10    -0.214519505644E+03    0.10723E-03   -0.12925E-03  9407   0.791E-02    0.192E-01
RMM:  11    -0.214519537152E+03   -0.31509E-04   -0.69544E-04  8267   0.652E-02    0.144E-01
RMM:  12    -0.214519414390E+03    0.12276E-03   -0.23965E-04  8793   0.361E-02    0.319E-02
RMM:  13    -0.214519406884E+03    0.75064E-05   -0.53263E-05 10193   0.144E-02    0.191E-02
RMM:  14    -0.214519409332E+03   -0.24486E-05   -0.17939E-05 10161   0.831E-03    0.810E-03
RMM:  15    -0.214519410527E+03   -0.11946E-05   -0.71016E-06 10313   0.476E-03    0.420E-03
 num prob  num prob  num prob  num prob RMM:  16    -0.214519410790E+03   -0.26335E-06   -0.26665E-06  8728   0.254E-03    0.186E-03
 num prob  num prob  num prob  num prob  num prob  num prob  num prob  num prob RMM:  17    -0.214519410938E+03   -0.14771E-06   -0.12004E-06  7034   0.185E-03    0.115E-03
 num prob  num prob  num prob  num prob  num prob  num prob  num prob  num prob  num prob  num prob  num prob  num prob  num prob  num prob  num prob  num prob  num prob  num prob  num prob  num prob  num prob  num prob  num prob  num prob  num prob  num prob RMM:  18    -0.214519411088E+03   -0.15027E-06   -0.55333E-07  6029   0.152E-03    0.707E-04
 num prob  num prob  num prob  num prob  num prob  num prob  num prob  num prob  num prob  num prob  num prob  num prob  num prob  num prob  num prob  num prob  num prob  num prob  num prob  num prob RMM:  19    -0.214519411105E+03   -0.17106E-07   -0.28790E-07  4976   0.111E-03
   8 F= -.21451941E+03 E0= -.21451502E+03  d E =-.895648E+00  mag=    -0.0021
 trial-energy change:   -0.895648  1 .order   -0.898338   -1.723350   -0.073325
 step:   0.8825(harm=  0.8825)  dis= 0.08219  next Energy=  -214.523730 (dE=-0.900E+00)
 bond charge predicted
       N       E                     dE             d eps       ncg     rms          rms(c)
DAV:   1    -0.214523427154E+03   -0.40161E-02   -0.98999E-01  7184   0.303E+00    0.528E-01
RMM:   2    -0.214527174051E+03   -0.37469E-02   -0.32586E-02  6912   0.581E-01    0.890E-01
RMM:   3    -0.214523796623E+03    0.33774E-02   -0.35657E-03  6986   0.185E-01    0.607E-01
RMM:   4    -0.214523050374E+03    0.74625E-03   -0.16533E-03  6998   0.109E-01    0.503E-01
RMM:   5    -0.214521513708E+03    0.15367E-02   -0.10681E-03  6930   0.853E-02    0.167E-01
RMM:   6    -0.214521384816E+03    0.12889E-03   -0.47217E-04  6980   0.585E-02    0.142E-01
RMM:   7    -0.214521252472E+03    0.13234E-03   -0.16181E-04  7119   0.324E-02    0.413E-02
RMM:   8    -0.214521241595E+03    0.10877E-04   -0.40267E-05  7633   0.159E-02    0.188E-02
RMM:   9    -0.214521242420E+03   -0.82532E-06   -0.84634E-06  9022   0.678E-03    0.115E-02
RMM:  10    -0.214521243053E+03   -0.63257E-06   -0.19513E-06  8611   0.305E-03    0.720E-03
RMM:  11    -0.214521243704E+03   -0.65134E-06   -0.10718E-06  7241   0.243E-03    0.460E-03
 num prob  num prob RMM:  12    -0.214521243755E+03   -0.50612E-07   -0.37193E-07  5173   0.154E-03
   9 F= -.21452124E+03 E0= -.21451683E+03  d E =-.897481E+00  mag=    -0.0018
 curvature:  -0.74 expect dE=-0.828E+00 dE for cont linesearch -0.754E-08
 trial: gam= 0.49381 g(F)=  0.976E+00 g(S)=  0.143E+00 ort = 0.187E-03 (trialstep = 0.852E+00)
 search vector abs. value=  0.195E+01
 bond charge predicted
       N       E                     dE             d eps       ncg     rms          rms(c)
DAV:   1    -0.215193936331E+03   -0.67269E+00   -0.29336E+02  6912   0.504E+01    0.858E+00
RMM:   2    -0.215473965309E+03   -0.28003E+00   -0.10954E+01  6912   0.106E+01    0.757E+00
RMM:   3    -0.215194041274E+03    0.27992E+00   -0.10608E+00  6969   0.327E+00    0.458E+00
RMM:   4    -0.214962590415E+03    0.23145E+00   -0.37136E-01  6989   0.163E+00    0.287E+00
RMM:   5    -0.215026676421E+03   -0.64086E-01   -0.11577E-01  7213   0.894E-01    0.408E+00
RMM:   6    -0.214947820589E+03    0.78856E-01   -0.49467E-02  7205   0.536E-01    0.225E+00
RMM:   7    -0.214922556661E+03    0.25264E-01   -0.29785E-02  7092   0.435E-01    0.997E-01
RMM:   8    -0.214916129731E+03    0.64269E-02   -0.13745E-02  7167   0.305E-01    0.540E-01
RMM:   9    -0.214913659334E+03    0.24704E-02   -0.36256E-03  7702   0.150E-01    0.219E-01
RMM:  10    -0.214913661834E+03   -0.24998E-05   -0.84902E-04  9886   0.611E-02    0.133E-01
RMM:  11    -0.214913688067E+03   -0.26232E-04   -0.33647E-04  9168   0.419E-02    0.628E-02
RMM:  12    -0.214913664715E+03    0.23352E-04   -0.10148E-04  9813   0.229E-02    0.231E-02
RMM:  13    -0.214913664771E+03   -0.55861E-07   -0.27362E-05 10771   0.101E-02    0.975E-03
RMM:  14    -0.214913665946E+03   -0.11754E-05   -0.97914E-06 10870   0.565E-03    0.553E-03
RMM:  15    -0.214913666705E+03   -0.75861E-06   -0.42937E-06 10101   0.374E-03    0.320E-03
 num prob  num prob  num prob  num prob  num prob  num prob  num prob  num prob  num prob  num prob  num prob  num prob  num prob RMM:  16    -0.214913666991E+03   -0.28646E-06   -0.18802E-06  8405   0.225E-03    0.160E-03
 num prob  num prob  num prob  num prob  num prob  num prob  num prob RMM:  17    -0.214913667090E+03   -0.99124E-07   -0.76779E-07  6264   0.164E-03
  10 F= -.21491367E+03 E0= -.21491242E+03  d E =-.392423E+00  mag=    -0.0011
 trial-energy change:   -0.392423  1 .order   -0.392370   -0.954346    0.169606
 step:   0.7238(harm=  0.7238)  dis= 0.04927  next Energy=  -214.926411 (dE=-0.405E+00)
 bond charge predicted
       N       E                     dE             d eps       ncg     rms          rms(c)
DAV:   1    -0.214933927600E+03   -0.20261E-01   -0.67559E+00  6976   0.770E+00    0.121E+00
RMM:   2    -0.214938941308E+03   -0.50137E-02   -0.21918E-01  6912   0.150E+00    0.117E+00
RMM:   3    -0.214933190614E+03    0.57507E-02   -0.20196E-02  7102   0.435E-01    0.801E-01
RMM:   4    -0.214931292958E+03    0.18977E-02   -0.87707E-03  6951   0.250E-01    0.884E-01
RMM:   5    -0.214929027584E+03    0.22654E-02   -0.29673E-03  7038   0.147E-01    0.625E-01
RMM:   6    -0.214927629586E+03    0.13980E-02   -0.19767E-03  7008   0.113E-01    0.375E-01
RMM:   7    -0.214926641173E+03    0.98841E-03   -0.81325E-04  6998   0.735E-02    0.996E-02
RMM:   8    -0.214926597375E+03    0.43798E-04   -0.27782E-04  7488   0.419E-02    0.640E-02
RMM:   9    -0.214926568995E+03    0.28380E-04   -0.67109E-05  7862   0.197E-02    0.304E-02
RMM:  10    -0.214926564996E+03    0.39996E-05   -0.17531E-05  9305   0.908E-03    0.158E-02
RMM:  11    -0.214926563963E+03    0.10324E-05   -0.68791E-06  8831   0.589E-03    0.973E-03
RMM:  12    -0.214926563119E+03    0.84423E-06   -0.19658E-06  9000   0.315E-03    0.372E-03
 num prob  num prob  num prob  num prob RMM:  13    -0.214926562965E+03    0.15430E-06   -0.40651E-07  5612   0.137E-03    0.162E-03
RMM:  14    -0.214926562856E+03    0.10916E-06   -0.21166E-07  4665   0.108E-03    0.841E-04
 num prob  num prob  num prob  num prob  num prob RMM:  15    -0.214926562837E+03    0.18335E-07   -0.86541E-08  4194   0.847E-04
  11 F= -.21492656E+03 E0= -.21492476E+03  d E =-.405319E+00  mag=    -0.0015
 curvature:  -0.63 expect dE=-0.334E+00 dE for cont linesearch -0.195E-05
 trial: gam= 0.43703 g(F)=  0.485E+00 g(S)=  0.441E-01 ort = 0.246E-02 (trialstep = 0.827E+00)
 search vector abs. value=  0.904E+00
 bond charge predicted
       N       E                     dE             d eps       ncg     rms          rms(c)
DAV:   1    -0.214978702020E+03   -0.52139E-01   -0.13595E+02  6912   0.344E+01    0.414E+00
RMM:   2    -0.215333710869E+03   -0.35501E+00   -0.40551E+00  6920   0.654E+00    0.455E+00
RMM:   3    -0.215254089205E+03    0.79622E-01   -0.28485E-01  7357   0.184E+00    0.360E+00
RMM:   4    -0.215265681317E+03   -0.11592E-01   -0.60454E-02  7705   0.588E-01    0.368E+00
RMM:   5    -0.215228164180E+03    0.37517E-01   -0.36550E-02  7135   0.466E-01    0.230E+00
RMM:   6    -0.215244917941E+03   -0.16754E-01   -0.54165E-02  7053   0.601E-01    0.254E+00
RMM:   7    -0.215207375076E+03    0.37543E-01   -0.26605E-02  7087   0.412E-01    0.625E-01
RMM:   8    -0.215203553202E+03    0.38219E-02   -0.55664E-03  7274   0.192E-01    0.267E-01
RMM:   9    -0.215202908353E+03    0.64485E-03   -0.11585E-03  7594   0.789E-02    0.110E-01
RMM:  10    -0.215202792780E+03    0.11557E-03   -0.39906E-04  8064   0.424E-02    0.543E-02
RMM:  11    -0.215202786669E+03    0.61109E-05   -0.18242E-04  7803   0.320E-02    0.353E-02
RMM:  12    -0.215202786087E+03    0.58154E-06   -0.30433E-05  9024   0.128E-02    0.200E-02
RMM:  13    -0.215202785430E+03    0.65689E-06   -0.10170E-05  9437   0.529E-03    0.960E-03
RMM:  14    -0.215202785780E+03   -0.34952E-06   -0.40184E-06  8823   0.345E-03    0.506E-03
RMM:  15    -0.215202786000E+03   -0.21979E-06   -0.17471E-06  7251   0.197E-03    0.389E-03
 num prob  num prob  num prob  num prob  num prob  num prob  num prob  num prob  num prob  num prob  num prob  num prob  num prob  num prob  num prob  num prob  num prob RMM:  16    -0.215202786165E+03   -0.16516E-06   -0.73749E-07  5267   0.147E-03    0.355E-03
 num prob  num prob  num prob  num prob  num prob  num prob  num prob  num prob  num prob  num prob  num prob RMM:  17    -0.215202786214E+03   -0.49597E-07   -0.36419E-07  4705   0.109E-03
  12 F= -.21520279E+03 E0= -.21520133E+03  d E =-.276223E+00  mag=    -0.0044
 trial-energy change:   -0.276223  1 .order   -0.277021   -0.438078   -0.115964
 step:   1.1306(harm=  1.1244)  dis= 0.05541  next Energy=  -215.224053 (dE=-0.297E+00)
 bond charge predicted
       N       E                     dE             d eps       ncg     rms          rms(c)
DAV:   1    -0.215195946989E+03    0.68392E-02   -0.18392E+01  6912   0.127E+01    0.149E+00
RMM:   2    -0.215246902719E+03   -0.50956E-01   -0.52039E-01  6914   0.235E+00    0.201E+00
RMM:   3    -0.215230597529E+03    0.16305E-01   -0.38602E-02  7383   0.662E-01    0.127E+00
RMM:   4    -0.215233425419E+03   -0.28279E-02   -0.80013E-03  7579   0.218E-01    0.141E+00
RMM:   5    -0.215229107146E+03    0.43183E-02   -0.48080E-03  7110   0.168E-01    0.104E+00
RMM:   6    -0.215230743830E+03   -0.16367E-02   -0.73813E-03  7044   0.223E-01    0.104E+00
RMM:   7    -0.215224453475E+03    0.62904E-02   -0.44244E-03  7039   0.168E-01    0.165E-01
RMM:   8    -0.215224171188E+03    0.28229E-03   -0.85531E-04  7383   0.754E-02    0.972E-02
RMM:   9    -0.215224084072E+03    0.87116E-04   -0.17319E-04  7721   0.295E-02    0.475E-02
RMM:  10    -0.215224065884E+03    0.18188E-04   -0.60940E-05  7779   0.166E-02    0.250E-02
RMM:  11    -0.215224067586E+03   -0.17024E-05   -0.30739E-05  7644   0.139E-02    0.168E-02
RMM:  12    -0.215224069923E+03   -0.23370E-05   -0.55977E-06  8314   0.551E-03    0.170E-02
RMM:  13    -0.215224068517E+03    0.14061E-05   -0.16503E-06  7465   0.299E-03    0.176E-02
 num prob  num prob  num prob  num prob  num prob  num prob  num prob  num prob  num prob  num prob  num prob  num prob  num prob RMM:  14    -0.215224069104E+03   -0.58641E-06   -0.40457E-07  4698   0.123E-03    0.175E-02
RMM:  15    -0.215224070871E+03   -0.17672E-05   -0.58762E-07  5546   0.174E-03    0.185E-02
RMM:  16    -0.215224049490E+03    0.21381E-04   -0.54533E-05  6984   0.198E-02    0.155E-02
RMM:  17    -0.215224061398E+03   -0.11907E-04   -0.14975E-05  7005   0.100E-02    0.161E-02
RMM:  18    -0.215224063478E+03   -0.20804E-05   -0.23216E-06  6780   0.570E-03    0.147E-02
RMM:  19    -0.215224058140E+03    0.53384E-05   -0.86914E-06  6828   0.867E-03    0.582E-03
RMM:  20    -0.215224060187E+03   -0.20476E-05   -0.10710E-06  6014   0.328E-03    0.292E-03
RMM:  21    -0.215224060384E+03   -0.19663E-06   -0.45236E-07  5309   0.267E-03    0.154E-03
 num prob  num prob  num prob  num prob RMM:  22    -0.215224060413E+03   -0.29457E-07   -0.43677E-08  4050   0.742E-04
  13 F= -.21522406E+03 E0= -.21522205E+03  d E =-.297498E+00  mag=     0.0006
 curvature:  -0.96 expect dE=-0.279E+00 dE for cont linesearch -0.686E-07
 trial: gam= 0.51207 g(F)=  0.193E+00 g(S)=  0.980E-01 ort =-0.254E-03 (trialstep = 0.888E+00)
 search vector abs. value=  0.528E+00
 bond charge predicted
       N       E                     dE             d eps       ncg     rms          rms(c)
DAV:   1    -0.215466698415E+03   -0.24264E+00   -0.93029E+01  6912   0.302E+01    0.500E+00
RMM:   2    -0.215473112677E+03   -0.64143E-02   -0.30859E+00  6912   0.544E+00    0.450E+00
RMM:   3    -0.215630373017E+03   -0.15726E+00   -0.29316E-01  7267   0.174E+00    0.557E+00
RMM:   4    -0.215476505501E+03    0.15387E+00   -0.15317E-01  7110   0.107E+00    0.439E+00
RMM:   5    -0.215349260590E+03    0.12724E+00   -0.56335E-02  7088   0.687E-01    0.173E+00
RMM:   6    -0.215365986719E+03   -0.16726E-01   -0.52405E-02  7334   0.519E-01    0.227E+00
RMM:   7    -0.215347594933E+03    0.18392E-01   -0.17189E-02  7106   0.350E-01    0.104E+00
RMM:   8    -0.215339491636E+03    0.81033E-02   -0.80665E-03  7246   0.223E-01    0.395E-01
RMM:   9    -0.215338402591E+03    0.10890E-02   -0.15784E-03  7585   0.108E-01    0.216E-01
RMM:  10    -0.215338275723E+03    0.12687E-03   -0.38590E-04  9114   0.453E-02    0.120E-01
RMM:  11    -0.215338269687E+03    0.60354E-05   -0.18153E-04  8387   0.320E-02    0.786E-02
RMM:  12    -0.215338249847E+03    0.19840E-04   -0.77242E-05  8458   0.213E-02    0.334E-02
RMM:  13    -0.215338244422E+03    0.54250E-05   -0.23667E-05  9817   0.103E-02    0.139E-02
RMM:  14    -0.215338245855E+03   -0.14325E-05   -0.83637E-06 10325   0.523E-03    0.861E-03
RMM:  15    -0.215338246966E+03   -0.11113E-05   -0.35115E-06  9495   0.347E-03    0.718E-03
 num prob  num prob  num prob  num prob  num prob  num prob  num prob  num prob  num prob  num prob  num prob  num prob  num prob  num prob  num prob  num prob  num prob  num prob  num prob  num prob  num prob  num prob  num prob  num prob  num prob  num prob  num prob  num prob  num prob  num prob  num prob  num prob  num prob  num prob  num prob  num prob  num prob  num prob  num prob  num prob  num prob  num prob  num prob  num prob  num prob  num prob  num prob  num prob  num prob  num prob  num prob  num prob  num prob  num prob  num prob  num prob  num prob  num prob  num prob RMM:  16    -0.215338247134E+03   -0.16803E-06   -0.76770E-07  5478   0.181E-03    0.762E-03
RMM:  17    -0.215338246899E+03    0.23490E-06   -0.11960E-06  7625   0.234E-03    0.729E-03
 num prob  num prob  num prob  num prob RMM:  18    -0.215338246369E+03    0.52976E-06   -0.10103E-06  7270   0.220E-03    0.530E-03
 num prob  num prob  num prob  num prob  num prob  num prob  num prob  num prob  num prob  num prob  num prob  num prob  num prob  num prob  num prob  num prob  num prob  num prob  num prob  num prob  num prob RMM:  19    -0.215338246359E+03    0.99608E-08   -0.31009E-07  5006   0.140E-03
  14 F= -.21533825E+03 E0= -.21533473E+03  d E =-.114186E+00  mag=     0.0019
 trial-energy change:   -0.114186  1 .order   -0.112937   -0.258097    0.032223
 step:   0.7912(harm=  0.7890)  dis= 0.03293  next Energy=  -215.339993 (dE=-0.116E+00)
 bond charge predicted
       N       E                     dE             d eps       ncg     rms          rms(c)
DAV:   1    -0.215341580023E+03   -0.33337E-02   -0.11016E+00  7168   0.329E+00    0.526E-01
RMM:   2    -0.215341706238E+03   -0.12621E-03   -0.33095E-02  6912   0.572E-01    0.507E-01
RMM:   3    -0.215343690298E+03   -0.19841E-02   -0.29937E-03  7224   0.179E-01    0.788E-01
RMM:   4    -0.215340577136E+03    0.31132E-02   -0.18178E-03  6945   0.126E-01    0.297E-01
RMM:   5    -0.215340304223E+03    0.27291E-03   -0.69963E-04  7088   0.775E-02    0.248E-01
RMM:   6    -0.215340207823E+03    0.96400E-04   -0.34160E-04  7219   0.461E-02    0.169E-01
RMM:   7    -0.215340098334E+03    0.10949E-03   -0.22007E-04  7120   0.363E-02    0.103E-01
RMM:   8    -0.215340054609E+03    0.43726E-04   -0.92343E-05  7306   0.240E-02    0.630E-02
RMM:   9    -0.215340026251E+03    0.28358E-04   -0.18468E-05  7295   0.112E-02    0.228E-02
RMM:  10    -0.215340026265E+03   -0.14112E-07   -0.61075E-06  9055   0.506E-03    0.220E-02
RMM:  11    -0.215340028555E+03   -0.22901E-05   -0.34246E-06  7714   0.430E-03    0.199E-02
RMM:  12    -0.215340026011E+03    0.25437E-05   -0.13745E-06  7014   0.357E-03    0.192E-02
RMM:  13    -0.215340017493E+03    0.85188E-05   -0.13609E-05  6944   0.946E-03    0.109E-02
RMM:  14    -0.215340019169E+03   -0.16764E-05   -0.34953E-06  6743   0.501E-03    0.643E-03
RMM:  15    -0.215340019689E+03   -0.51996E-06   -0.60301E-07  5493   0.278E-03    0.475E-03
RMM:  16    -0.215340019303E+03    0.38566E-06   -0.66225E-07  5654   0.265E-03    0.198E-03
RMM:  17    -0.215340019397E+03   -0.93783E-07   -0.73061E-08  4057   0.107E-03
  15 F= -.21534002E+03 E0= -.21533663E+03  d E =-.115959E+00  mag=    -0.0002
 curvature:  -0.72 expect dE=-0.110E+00 dE for cont linesearch -0.133E-06
 trial: gam= 0.50619 g(F)=  0.761E-01 g(S)=  0.781E-01 ort = 0.314E-03 (trialstep = 0.868E+00)
 search vector abs. value=  0.290E+00
 bond charge predicted
       N       E                     dE             d eps       ncg     rms          rms(c)
DAV:   1    -0.215348298844E+03   -0.82795E-02   -0.48280E+01  6912   0.216E+01    0.294E+00
RMM:   2    -0.215560860653E+03   -0.21256E+00   -0.13826E+00  6912   0.379E+00    0.455E+00
RMM:   3    -0.215481723346E+03    0.79137E-01   -0.12605E-01  7302   0.111E+00    0.358E+00
RMM:   4    -0.215427116310E+03    0.54607E-01   -0.44017E-02  7261   0.542E-01    0.205E+00
RMM:   5    -0.215411772579E+03    0.15344E-01   -0.33856E-02  6942   0.493E-01    0.142E+00
RMM:   6    -0.215419404745E+03   -0.76322E-02   -0.18690E-02  7028   0.395E-01    0.163E+00
RMM:   7    -0.215404688085E+03    0.14717E-01   -0.91829E-03  7092   0.253E-01    0.522E-01
RMM:   8    -0.215402309087E+03    0.23790E-02   -0.31427E-03  7164   0.147E-01    0.244E-01
RMM:   9    -0.215401891188E+03    0.41790E-03   -0.90485E-04  7292   0.798E-02    0.110E-01
RMM:  10    -0.215401844352E+03    0.46836E-04   -0.20921E-04  8223   0.339E-02    0.854E-02
RMM:  11    -0.215401831581E+03    0.12771E-04   -0.64083E-05  9375   0.169E-02    0.444E-02
RMM:  12    -0.215401821702E+03    0.98789E-05   -0.21900E-05  8942   0.102E-02    0.142E-02
RMM:  13    -0.215401820607E+03    0.10954E-05   -0.77571E-06 10181   0.501E-03    0.698E-03
 num prob  num prob  num prob  num prob RMM:  14    -0.215401820597E+03    0.10572E-07   -0.22205E-06  7859   0.231E-03    0.552E-03
 num prob  num prob  num prob  num prob RMM:  15    -0.215401820533E+03    0.63534E-07   -0.91369E-07  5968   0.167E-03
  16 F= -.21540182E+03 E0= -.21539792E+03  d E =-.618011E-01  mag=     0.0006
 trial-energy change:   -0.061801  1 .order   -0.062448   -0.134023    0.009127
 step:   0.8115(harm=  0.8129)  dis= 0.03012  next Energy=  -215.402119 (dE=-0.621E-01)
 bond charge predicted
       N       E                     dE             d eps       ncg     rms          rms(c)
DAV:   1    -0.215401895366E+03   -0.74769E-04   -0.20679E-01  7264   0.141E+00    0.196E-01
RMM:   2    -0.215402811688E+03   -0.91632E-03   -0.58316E-03  6912   0.247E-01    0.332E-01
RMM:   3    -0.215402445956E+03    0.36573E-03   -0.48089E-04  7220   0.708E-02    0.238E-01
RMM:   4    -0.215402241739E+03    0.20422E-03   -0.22054E-04  7204   0.382E-02    0.131E-01
RMM:   5    -0.215402132509E+03    0.10923E-03   -0.13192E-04  6964   0.319E-02    0.639E-02
RMM:   6    -0.215402138852E+03   -0.63429E-05   -0.57245E-05  7128   0.206E-02    0.472E-02
RMM:   7    -0.215402132149E+03    0.67024E-05   -0.19331E-05  7148   0.114E-02    0.413E-02
RMM:   8    -0.215402123267E+03    0.88824E-05   -0.69764E-06  7217   0.674E-03    0.125E-02
RMM:   9    -0.215402122581E+03    0.68577E-06   -0.25133E-06  6963   0.431E-03    0.838E-03
RMM:  10    -0.215402122867E+03   -0.28578E-06   -0.81390E-07  6438   0.227E-03    0.628E-03
RMM:  11    -0.215402123118E+03   -0.25105E-06   -0.15961E-07  4397   0.106E-03    0.667E-03
RMM:  12    -0.215402122693E+03    0.42512E-06   -0.26346E-07  4573   0.150E-03    0.666E-03
RMM:  13    -0.215402122175E+03    0.51758E-06   -0.10294E-06  5952   0.251E-03    0.486E-03
RMM:  14    -0.215402122324E+03   -0.14904E-06   -0.14126E-07  4144   0.124E-03    0.261E-03
RMM:  15    -0.215402122397E+03   -0.72610E-07   -0.18328E-07  4229   0.115E-03
  17 F= -.21540212E+03 E0= -.21539824E+03  d E =-.621030E-01  mag=    -0.0004
 curvature:  -0.76 expect dE=-0.808E-01 dE for cont linesearch -0.427E-10
 trial: gam= 0.69279 g(F)=  0.543E-01 g(S)=  0.517E-01 ort =-0.403E-05 (trialstep = 0.857E+00)
 search vector abs. value=  0.245E+00
 bond charge predicted
       N       E                     dE             d eps       ncg     rms          rms(c)
DAV:   1    -0.215425541127E+03   -0.23419E-01   -0.34672E+01  6912   0.177E+01    0.262E+00
RMM:   2    -0.215567732498E+03   -0.14219E+00   -0.10233E+00  6912   0.342E+00    0.439E+00
RMM:   3    -0.215512133609E+03    0.55599E-01   -0.11408E-01  7458   0.995E-01    0.286E+00
RMM:   4    -0.215479771746E+03    0.32362E-01   -0.45106E-02  7251   0.553E-01    0.213E+00
RMM:   5    -0.215455700430E+03    0.24071E-01   -0.21052E-02  7068   0.392E-01    0.136E+00
RMM:   6    -0.215453379502E+03    0.23209E-02   -0.15494E-02  7072   0.329E-01    0.122E+00
RMM:   7    -0.215445860127E+03    0.75194E-02   -0.83046E-03  7124   0.230E-01    0.475E-01
RMM:   8    -0.215444239026E+03    0.16211E-02   -0.26407E-03  7198   0.136E-01    0.249E-01
RMM:   9    -0.215443821844E+03    0.41718E-03   -0.75629E-04  7754   0.647E-02    0.100E-01
RMM:  10    -0.215443783680E+03    0.38164E-04   -0.21576E-04  7903   0.355E-02    0.698E-02
RMM:  11    -0.215443785104E+03   -0.14243E-05   -0.74262E-05  8637   0.203E-02    0.478E-02
RMM:  12    -0.215443778936E+03    0.61677E-05   -0.25257E-05  9273   0.104E-02    0.204E-02
RMM:  13    -0.215443776837E+03    0.20992E-05   -0.93127E-06  9784   0.546E-03    0.642E-03
 num prob  num prob WARNING in EDDRMM: call to ZHEGV failed, returncode =   6  3 14
 num prob  num prob RMM:  14    -0.215443777110E+03   -0.27275E-06   -0.33467E-06  8548   0.267E-03    0.364E-03
 num prob  num prob  num prob WARNING in EDDRMM: call to ZHEGV failed, returncode =   6  3 15
RMM:  15    -0.215443777312E+03   -0.20203E-06   -0.12168E-06  6265   0.175E-03    0.189E-03
 num prob  num prob  num prob  num prob  num prob  num prob  num prob  num prob  num prob  num prob  num prob  num prob  num prob  num prob  num prob  num prob  num prob  num prob  num prob  num prob  num prob  num prob  num prob  num prob  num prob  num prob  num prob  num prob RMM:  16    -0.215443777430E+03   -0.11752E-06   -0.47334E-07  4792   0.123E-03    0.103E-03
 num prob  num prob  num prob  num prob  num prob  num prob RMM:  17    -0.215443777462E+03   -0.32622E-07   -0.31867E-07  5021   0.100E-03
  18 F= -.21544378E+03 E0= -.21543974E+03  d E =-.416551E-01  mag=    -0.0011
 trial-energy change:   -0.041655  1 .order   -0.041685   -0.090818    0.007448
 step:   0.7920(harm=  0.7920)  dis= 0.02043  next Energy=  -215.444089 (dE=-0.420E-01)
 bond charge predicted
       N       E                     dE             d eps       ncg     rms          rms(c)
DAV:   1    -0.215443971102E+03   -0.19367E-03   -0.19950E-01  7104   0.134E+00    0.193E-01
RMM:   2    -0.215444753338E+03   -0.78224E-03   -0.57750E-03  6912   0.257E-01    0.321E-01
RMM:   3    -0.215444472333E+03    0.28101E-03   -0.61699E-04  7495   0.725E-02    0.243E-01
RMM:   4    -0.215444242936E+03    0.22940E-03   -0.24017E-04  7225   0.409E-02    0.149E-01
RMM:   5    -0.215444104344E+03    0.13859E-03   -0.10869E-04  7049   0.293E-02    0.726E-02
RMM:   6    -0.215444123399E+03   -0.19054E-04   -0.77608E-05  7072   0.235E-02    0.924E-02
RMM:   7    -0.215444073684E+03    0.49715E-04   -0.40490E-05  7128   0.163E-02    0.200E-02
RMM:   8    -0.215444069788E+03    0.38958E-05   -0.86652E-06  7427   0.744E-03    0.115E-02
RMM:   9    -0.215444069036E+03    0.75249E-06   -0.26981E-06  7308   0.391E-03    0.706E-03
RMM:  10    -0.215444068687E+03    0.34886E-06   -0.78509E-07  6358   0.209E-03    0.457E-03
RMM:  11    -0.215444068601E+03    0.85824E-07   -0.31422E-07  4936   0.143E-03
  19 F= -.21544407E+03 E0= -.21544001E+03  d E =-.419462E-01  mag=    -0.0044
 curvature:  -0.92 expect dE=-0.512E-01 dE for cont linesearch -0.944E-10
 trial: gam= 0.52754 g(F)=  0.372E-01 g(S)=  0.187E-01 ort = 0.503E-05 (trialstep = 0.844E+00)
 search vector abs. value=  0.124E+00
 bond charge predicted
       N       E                     dE             d eps       ncg     rms          rms(c)
DAV:   1    -0.215464986198E+03   -0.20918E-01   -0.16800E+01  6912   0.121E+01    0.165E+00
RMM:   2    -0.215507218406E+03   -0.42232E-01   -0.46456E-01  6912   0.225E+00    0.216E+00
RMM:   3    -0.215501398390E+03    0.58200E-02   -0.51399E-02  7574   0.642E-01    0.184E+00
RMM:   4    -0.215498127043E+03    0.32713E-02   -0.13889E-02  7214   0.307E-01    0.174E+00
RMM:   5    -0.215480410506E+03    0.17717E-01   -0.84123E-03  7124   0.235E-01    0.716E-01
RMM:   6    -0.215477915624E+03    0.24949E-02   -0.52433E-03  7076   0.192E-01    0.299E-01
RMM:   7    -0.215477591610E+03    0.32401E-03   -0.16728E-03  7260   0.104E-01    0.161E-01
RMM:   8    -0.215477391958E+03    0.19965E-03   -0.52566E-04  7419   0.524E-02    0.100E-01
RMM:   9    -0.215477347821E+03    0.44137E-04   -0.14017E-04  7526   0.291E-02    0.670E-02
RMM:  10    -0.215477326628E+03    0.21193E-04   -0.55290E-05  7653   0.174E-02    0.375E-02
RMM:  11    -0.215477323207E+03    0.34203E-05   -0.22210E-05  8218   0.102E-02    0.175E-02
RMM:  12    -0.215477322324E+03    0.88311E-06   -0.83839E-06  8170   0.620E-03    0.116E-02
RMM:  13    -0.215477321716E+03    0.60810E-06   -0.28837E-06  8079   0.292E-03    0.387E-03
 num prob  num prob  num prob  num prob  num prob  num prob  num prob  num prob  num prob  num prob  num prob  num prob RMM:  14    -0.215477321650E+03    0.66124E-07   -0.83220E-07  5256   0.150E-03
  20 F= -.21547732E+03 E0= -.21547343E+03  d E =-.332530E-01  mag=    -0.0075
 trial-energy change:   -0.033253  1 .order   -0.033264   -0.047170   -0.019359
 step:   1.4314(harm=  1.4314)  dis= 0.03111  next Energy=  -215.484071 (dE=-0.400E-01)
 bond charge predicted
       N       E                     dE             d eps       ncg     rms          rms(c)
DAV:   1    -0.215478094995E+03   -0.77328E-03   -0.81328E+00  6912   0.840E+00    0.115E+00
RMM:   2    -0.215496504830E+03   -0.18410E-01   -0.22468E-01  6912   0.157E+00    0.135E+00
RMM:   3    -0.215492787356E+03    0.37175E-02   -0.24275E-02  7445   0.447E-01    0.110E+00
RMM:   4    -0.215492557572E+03    0.22978E-03   -0.62860E-03  7290   0.199E-01    0.116E+00
RMM:   5    -0.215486114831E+03    0.64427E-02   -0.33344E-03  7144   0.144E-01    0.592E-01
RMM:   6    -0.215484569000E+03    0.15458E-02   -0.25671E-03  7016   0.137E-01    0.252E-01
RMM:   7    -0.215484271809E+03    0.29719E-03   -0.86577E-04  7200   0.732E-02    0.163E-01
RMM:   8    -0.215484115674E+03    0.15614E-03   -0.31415E-04  7319   0.441E-02    0.744E-02
RMM:   9    -0.215484075026E+03    0.40648E-04   -0.10327E-04  7561   0.231E-02    0.425E-02
RMM:  10    -0.215484064757E+03    0.10269E-04   -0.26881E-05  8089   0.120E-02    0.180E-02
RMM:  11    -0.215484064842E+03   -0.84630E-07   -0.10310E-05  8536   0.672E-03    0.119E-02
RMM:  12    -0.215484064206E+03    0.63593E-06   -0.35303E-06  8029   0.404E-03    0.543E-03
RMM:  13    -0.215484064063E+03    0.14303E-06   -0.13036E-06  6506   0.191E-03    0.190E-03
 num prob  num prob  num prob  num prob  num prob  num prob  num prob  num prob  num prob RMM:  14    -0.215484064057E+03    0.56316E-08   -0.32757E-07  4584   0.121E-03
  21 F= -.21548406E+03 E0= -.21548056E+03  d E =-.399955E-01  mag=    -0.0063
 curvature:  -1.59 expect dE=-0.101E+00 dE for cont linesearch -0.106E-06
 trial: gam= 1.14301 g(F)=  0.564E-01 g(S)=  0.715E-02 ort =-0.910E-04 (trialstep = 0.529E+00)
 search vector abs. value=  0.225E+00
 bond charge predicted
       N       E                     dE             d eps       ncg     rms          rms(c)
DAV:   1    -0.215489502707E+03   -0.54386E-02   -0.12871E+01  6912   0.108E+01    0.123E+00
RMM:   2    -0.215523669246E+03   -0.34167E-01   -0.34810E-01  6912   0.197E+00    0.170E+00
RMM:   3    -0.215520003138E+03    0.36661E-02   -0.32060E-02  7702   0.527E-01    0.120E+00
RMM:   4    -0.215520218458E+03   -0.21532E-03   -0.95931E-03  7364   0.245E-01    0.146E+00
RMM:   5    -0.215509197677E+03    0.11021E-01   -0.38134E-03  7102   0.160E-01    0.406E-01
RMM:   6    -0.215509185669E+03    0.12007E-04   -0.31794E-03  7146   0.147E-01    0.424E-01
RMM:   7    -0.215508486755E+03    0.69891E-03   -0.12738E-03  7173   0.879E-02    0.212E-01
RMM:   8    -0.215508174182E+03    0.31257E-03   -0.41894E-04  7397   0.509E-02    0.821E-02
RMM:   9    -0.215508133362E+03    0.40820E-04   -0.88353E-05  7926   0.211E-02    0.427E-02
RMM:  10    -0.215508130226E+03    0.31356E-05   -0.31708E-05  8051   0.122E-02    0.249E-02
RMM:  11    -0.215508132140E+03   -0.19138E-05   -0.12247E-05  8191   0.758E-03    0.189E-02
RMM:  12    -0.215508131917E+03    0.22283E-06   -0.45495E-06  7931   0.429E-03    0.124E-02
RMM:  13    -0.215508131459E+03    0.45813E-06   -0.17768E-06  7291   0.236E-03    0.673E-03
 num prob  num prob  num prob  num prob RMM:  14    -0.215508131408E+03    0.51496E-07   -0.57449E-07  5018   0.136E-03
  22 F= -.21550813E+03 E0= -.21550489E+03  d E =-.240674E-01  mag=    -0.0031
 trial-energy change:   -0.024067  1 .order   -0.024037   -0.033568   -0.014505
 step:   0.9318(harm=  0.9318)  dis= 0.03040  next Energy=  -215.513619 (dE=-0.296E-01)
 bond charge predicted
       N       E                     dE             d eps       ncg     rms          rms(c)
DAV:   1    -0.215502791669E+03    0.53398E-02   -0.74547E+00  6912   0.825E+00    0.939E-01
RMM:   2    -0.215520836768E+03   -0.18045E-01   -0.20089E-01  6912   0.150E+00    0.113E+00
RMM:   3    -0.215518652598E+03    0.21842E-02   -0.18281E-02  7610   0.402E-01    0.774E-01
RMM:   4    -0.215520134262E+03   -0.14817E-02   -0.47230E-03  7367   0.169E-01    0.113E+00
RMM:   5    -0.215514181080E+03    0.59532E-02   -0.17766E-03  7114   0.108E-01    0.307E-01
RMM:   6    -0.215514391822E+03   -0.21074E-03   -0.19291E-03  7140   0.115E-01    0.382E-01
RMM:   7    -0.215513629810E+03    0.76201E-03   -0.77248E-04  7140   0.702E-02    0.132E-01
RMM:   8    -0.215513507914E+03    0.12190E-03   -0.23172E-04  7850   0.360E-02    0.566E-02
RMM:   9    -0.215513493217E+03    0.14697E-04   -0.43364E-05  7968   0.152E-02    0.332E-02
RMM:  10    -0.215513492678E+03    0.53942E-06   -0.15694E-05  8050   0.865E-03    0.225E-02
RMM:  11    -0.215513493624E+03   -0.94639E-06   -0.61036E-06  8196   0.515E-03    0.162E-02
RMM:  12    -0.215513493142E+03    0.48151E-06   -0.23541E-06  7488   0.299E-03    0.837E-03
RMM:  13    -0.215513492912E+03    0.23056E-06   -0.89316E-07  5799   0.175E-03    0.469E-03
 num prob  num prob  num prob  num prob  num prob  num prob RMM:  14    -0.215513492922E+03   -0.10012E-07   -0.25570E-07  4560   0.113E-03
  23 F= -.21551349E+03 E0= -.21551059E+03  d E =-.294289E-01  mag=    -0.0013
 curvature:  -1.66 expect dE=-0.609E-01 dE for cont linesearch -0.619E-05
 trial: gam= 0.55307 g(F)=  0.225E-01 g(S)=  0.142E-01 ort =-0.918E-03 (trialstep = 0.610E+00)
 search vector abs. value=  0.105E+00
 bond charge predicted
       N       E                     dE             d eps       ncg     rms          rms(c)
DAV:   1    -0.215522304302E+03   -0.88114E-02   -0.81009E+00  6912   0.853E+00    0.108E+00
RMM:   2    -0.215551209004E+03   -0.28905E-01   -0.21023E-01  6912   0.151E+00    0.163E+00
RMM:   3    -0.215539722085E+03    0.11487E-01   -0.22893E-02  7208   0.462E-01    0.124E+00
RMM:   4    -0.215535697069E+03    0.40250E-02   -0.63059E-03  7502   0.188E-01    0.966E-01
RMM:   5    -0.215531324864E+03    0.43722E-02   -0.22872E-03  7052   0.127E-01    0.351E-01
RMM:   6    -0.215532019998E+03   -0.69513E-03   -0.24514E-03  7074   0.123E-01    0.559E-01
RMM:   7    -0.215530435665E+03    0.15843E-02   -0.12820E-03  7052   0.932E-02    0.123E-01
RMM:   8    -0.215530291537E+03    0.14413E-03   -0.31493E-04  7122   0.483E-02    0.501E-02
RMM:   9    -0.215530275875E+03    0.15662E-04   -0.71296E-05  8263   0.181E-02    0.355E-02
RMM:  10    -0.215530272788E+03    0.30869E-05   -0.17952E-05  8336   0.895E-03    0.253E-02
RMM:  11    -0.215530271749E+03    0.10390E-05   -0.72037E-06  8282   0.559E-03    0.137E-02
RMM:  12    -0.215530271051E+03    0.69822E-06   -0.24497E-06  7839   0.321E-03    0.676E-03
RMM:  13    -0.215530270965E+03    0.86118E-07   -0.81899E-07  5754   0.160E-03
  24 F= -.21553027E+03 E0= -.21552794E+03  d E =-.167780E-01  mag=    -0.0005
 trial-energy change:   -0.016778  1 .order   -0.016749   -0.022111   -0.011387
 step:   1.2571(harm=  1.2571)  dis= 0.02490  next Energy=  -215.536288 (dE=-0.228E-01)
 bond charge predicted
       N       E                     dE             d eps       ncg     rms          rms(c)
DAV:   1    -0.215526995892E+03    0.32752E-02   -0.91347E+00  6912   0.906E+00    0.114E+00
RMM:   2    -0.215556594970E+03   -0.29599E-01   -0.23623E-01  6914   0.160E+00    0.159E+00
RMM:   3    -0.215545346405E+03    0.11249E-01   -0.25655E-02  7206   0.489E-01    0.124E+00
RMM:   4    -0.215542440656E+03    0.29057E-02   -0.64893E-03  7588   0.189E-01    0.104E+00
RMM:   5    -0.215537309189E+03    0.51315E-02   -0.24876E-03  7048   0.131E-01    0.373E-01
RMM:   6    -0.215538088700E+03   -0.77951E-03   -0.27747E-03  7068   0.131E-01    0.590E-01
RMM:   7    -0.215536295714E+03    0.17930E-02   -0.13923E-03  7052   0.970E-02    0.121E-01
RMM:   8    -0.215536154009E+03    0.14170E-03   -0.32412E-04  7148   0.490E-02    0.492E-02
RMM:   9    -0.215536140665E+03    0.13344E-04   -0.71426E-05  8393   0.180E-02    0.377E-02
RMM:  10    -0.215536137669E+03    0.29965E-05   -0.18622E-05  8386   0.913E-03    0.268E-02
RMM:  11    -0.215536136277E+03    0.13917E-05   -0.72328E-06  8272   0.559E-03    0.139E-02
RMM:  12    -0.215536135611E+03    0.66617E-06   -0.25465E-06  7878   0.326E-03    0.682E-03
RMM:  13    -0.215536135529E+03    0.82127E-07   -0.86683E-07  5814   0.163E-03
  25 F= -.21553614E+03 E0= -.21553453E+03  d E =-.226426E-01  mag=    -0.0002
 curvature:  -1.81 expect dE=-0.573E-01 dE for cont linesearch -0.661E-05
 trial: gam= 0.79558 g(F)=  0.192E-01 g(S)=  0.124E-01 ort =-0.617E-03 (trialstep = 0.739E+00)
 search vector abs. value=  0.969E-01
 bond charge predicted
       N       E                     dE             d eps       ncg     rms          rms(c)
DAV:   1    -0.215548828310E+03   -0.12693E-01   -0.11510E+01  6912   0.103E+01    0.140E+00
RMM:   2    -0.215585451952E+03   -0.36624E-01   -0.35738E-01  6912   0.187E+00    0.217E+00
RMM:   3    -0.215557683274E+03    0.27769E-01   -0.32828E-02  7160   0.578E-01    0.968E-01
RMM:   4    -0.215562552723E+03   -0.48694E-02   -0.99191E-03  7146   0.267E-01    0.149E+00
RMM:   5    -0.215552591284E+03    0.99614E-02   -0.63457E-03  7038   0.219E-01    0.709E-01
RMM:   6    -0.215551656744E+03    0.93454E-03   -0.42778E-03  7102   0.172E-01    0.512E-01
RMM:   7    -0.215550090799E+03    0.15659E-02   -0.19558E-03  7076   0.115E-01    0.177E-01
RMM:   8    -0.215549881675E+03    0.20912E-03   -0.44504E-04  7438   0.529E-02    0.658E-02
RMM:   9    -0.215549865327E+03    0.16347E-04   -0.10544E-04  8052   0.246E-02    0.451E-02
RMM:  10    -0.215549866366E+03   -0.10387E-05   -0.34222E-05  9305   0.128E-02    0.261E-02
RMM:  11    -0.215549870505E+03   -0.41392E-05   -0.13591E-05  9700   0.791E-03    0.128E-02
RMM:  12    -0.215549870780E+03   -0.27510E-06   -0.48097E-06  9718   0.464E-03    0.551E-03
RMM:  13    -0.215549870922E+03   -0.14182E-06   -0.15859E-06  8278   0.225E-03    0.241E-03
 num prob  num prob RMM:  14    -0.215549871141E+03   -0.21860E-06   -0.56800E-07  5670   0.142E-03    0.145E-03
RMM:  15    -0.215549871347E+03   -0.20656E-06   -0.30258E-07  4774   0.114E-03    0.583E-04
 num prob  num prob RMM:  16    -0.215549871381E+03   -0.33619E-07   -0.10654E-07  4270   0.847E-04
  26 F= -.21554987E+03 E0= -.21554890E+03  d E =-.137359E-01  mag=    -0.0000
 trial-energy change:   -0.013736  1 .order   -0.013721   -0.022980   -0.004461
 step:   0.9172(harm=  0.9172)  dis= 0.01429  next Energy=  -215.550394 (dE=-0.143E-01)
 bond charge predicted
       N       E                     dE             d eps       ncg     rms          rms(c)
DAV:   1    -0.215550317435E+03   -0.44609E-03   -0.66908E-01  7040   0.249E+00    0.334E-01
RMM:   2    -0.215552434078E+03   -0.21166E-02   -0.20484E-02  6912   0.448E-01    0.528E-01
RMM:   3    -0.215550855883E+03    0.15782E-02   -0.18846E-03  7176   0.138E-01    0.244E-01
RMM:   4    -0.215551134398E+03   -0.27852E-03   -0.55260E-04  7144   0.627E-02    0.360E-01
RMM:   5    -0.215550522076E+03    0.61232E-03   -0.39892E-04  7038   0.552E-02    0.166E-01
RMM:   6    -0.215550500594E+03    0.21482E-04   -0.25905E-04  7114   0.423E-02    0.130E-01
RMM:   7    -0.215550397204E+03    0.10339E-03   -0.11637E-04  7080   0.281E-02    0.394E-02
RMM:   8    -0.215550388176E+03    0.90286E-05   -0.26831E-05  7452   0.129E-02    0.156E-02
RMM:   9    -0.215550387849E+03    0.32675E-06   -0.57018E-06  8007   0.574E-03    0.101E-02
RMM:  10    -0.215550388466E+03   -0.61683E-06   -0.19722E-06  8334   0.302E-03    0.621E-03
RMM:  11    -0.215550389294E+03   -0.82785E-06   -0.73566E-07  6583   0.190E-03    0.334E-03
RMM:  12    -0.215550389460E+03   -0.16663E-06   -0.25082E-07  4772   0.130E-03    0.133E-03
RMM:  13    -0.215550389494E+03   -0.33164E-07   -0.10225E-07  4238   0.993E-04
  27 F= -.21555039E+03 E0= -.21554956E+03  d E =-.142540E-01  mag=    -0.0000
 curvature:  -1.43 expect dE=-0.487E-01 dE for cont linesearch -0.184E-06
 trial: gam= 1.04035 g(F)=  0.182E-01 g(S)=  0.159E-01 ort =-0.112E-03 (trialstep = 0.541E+00)
 search vector abs. value=  0.139E+00
 bond charge predicted
       N       E                     dE             d eps       ncg     rms          rms(c)
DAV:   1    -0.215547802891E+03    0.25866E-02   -0.89855E+00  6912   0.878E+00    0.109E+00
RMM:   2    -0.215593514800E+03   -0.45712E-01   -0.24623E-01  6916   0.165E+00    0.223E+00
RMM:   3    -0.215565888115E+03    0.27627E-01   -0.23174E-02  7132   0.501E-01    0.501E-01
RMM:   4    -0.215565998654E+03   -0.11054E-03   -0.43565E-03  7260   0.171E-01    0.735E-01
RMM:   5    -0.215566076317E+03   -0.77664E-04   -0.17723E-03  7256   0.103E-01    0.710E-01
RMM:   6    -0.215563886935E+03    0.21894E-02   -0.20243E-03  7034   0.117E-01    0.219E-01
RMM:   7    -0.215563614882E+03    0.27205E-03   -0.68238E-04  7218   0.692E-02    0.131E-01
RMM:   8    -0.215563488290E+03    0.12659E-03   -0.15414E-04  7392   0.300E-02    0.563E-02
RMM:   9    -0.215563462424E+03    0.25866E-04   -0.58140E-05  7538   0.179E-02    0.433E-02
RMM:  10    -0.215563456348E+03    0.60763E-05   -0.27062E-05  7874   0.126E-02    0.269E-02
RMM:  11    -0.215563453567E+03    0.27802E-05   -0.85899E-06  8434   0.657E-03    0.643E-03
RMM:  12    -0.215563453327E+03    0.24006E-06   -0.18328E-06  7867   0.275E-03    0.308E-03
 num prob  num prob  num prob  num prob  num prob  num prob  num prob  num prob RMM:  13    -0.215563453302E+03    0.25215E-07   -0.55017E-07  5439   0.148E-03
  28 F= -.21556345E+03 E0= -.21556297E+03  d E =-.130638E-01  mag=    -0.0000
 trial-energy change:   -0.013064  1 .order   -0.013087   -0.018385   -0.007788
 step:   0.9388(harm=  0.9388)  dis= 0.01590  next Energy=  -215.566338 (dE=-0.159E-01)
 bond charge predicted
       N       E                     dE             d eps       ncg     rms          rms(c)
DAV:   1    -0.215557814342E+03    0.56390E-02   -0.48533E+00  6912   0.645E+00    0.805E-01
RMM:   2    -0.215581977282E+03   -0.24163E-01   -0.13205E-01  6916   0.121E+00    0.162E+00
RMM:   3    -0.215567567316E+03    0.14410E-01   -0.12401E-02  7146   0.366E-01    0.359E-01
RMM:   4    -0.215567349380E+03    0.21794E-03   -0.23286E-03  7252   0.124E-01    0.489E-01
RMM:   5    -0.215567800315E+03   -0.45094E-03   -0.94016E-04  7328   0.750E-02    0.536E-01
RMM:   6    -0.215566549659E+03    0.12507E-02   -0.10531E-03  7042   0.844E-02    0.175E-01
RMM:   7    -0.215566372483E+03    0.17718E-03   -0.37724E-04  7226   0.510E-02    0.104E-01
RMM:   8    -0.215566291661E+03    0.80823E-04   -0.84334E-05  7374   0.225E-02    0.385E-02
RMM:   9    -0.215566279362E+03    0.12298E-04   -0.30549E-05  7516   0.132E-02    0.313E-02
RMM:  10    -0.215566276229E+03    0.31333E-05   -0.14164E-05  7796   0.911E-03    0.192E-02
RMM:  11    -0.215566274650E+03    0.15793E-05   -0.42390E-06  8473   0.457E-03    0.447E-03
RMM:  12    -0.215566274531E+03    0.11890E-06   -0.88050E-07  6223   0.196E-03    0.222E-03
 num prob  num prob  num prob  num prob RMM:  13    -0.215566274511E+03    0.19358E-07   -0.29309E-07  4702   0.124E-03
  29 F= -.21556627E+03 E0= -.21556601E+03  d E =-.158850E-01  mag=    -0.0000
 curvature:  -1.92 expect dE=-0.308E-01 dE for cont linesearch -0.272E-06
 trial: gam= 0.45780 g(F)=  0.929E-02 g(S)=  0.678E-02 ort =-0.140E-03 (trialstep = 0.621E+00)
 search vector abs. value=  0.450E-01
 bond charge predicted
       N       E                     dE             d eps       ncg     rms          rms(c)
DAV:   1    -0.215572636295E+03   -0.63618E-02   -0.37044E+00  6912   0.574E+00    0.858E-01
RMM:   2    -0.215594977881E+03   -0.22342E-01   -0.11659E-01  6912   0.110E+00    0.172E+00
RMM:   3    -0.215575711111E+03    0.19267E-01   -0.13494E-02  6982   0.363E-01    0.440E-01
RMM:   4    -0.215576261429E+03   -0.55032E-03   -0.33699E-03  7068   0.154E-01    0.734E-01
RMM:   5    -0.215573637872E+03    0.26236E-02   -0.10868E-03  7134   0.903E-02    0.267E-01
RMM:   6    -0.215573233695E+03    0.40418E-03   -0.10385E-03  7128   0.806E-02    0.100E-01
RMM:   7    -0.215573226208E+03    0.74869E-05   -0.25979E-04  7260   0.428E-02    0.988E-02
RMM:   8    -0.215573165685E+03    0.60523E-04   -0.84569E-05  7454   0.222E-02    0.360E-02
RMM:   9    -0.215573159360E+03    0.63247E-05   -0.25592E-05  7722   0.125E-02    0.232E-02
RMM:  10    -0.215573159898E+03   -0.53769E-06   -0.54273E-06  8444   0.642E-03    0.108E-02
RMM:  11    -0.215573160449E+03   -0.55078E-06   -0.19459E-06  9032   0.290E-03    0.448E-03
RMM:  12    -0.215573160599E+03   -0.15019E-06   -0.60057E-07  6248   0.164E-03    0.218E-03
 num prob  num prob RMM:  13    -0.215573160667E+03   -0.68583E-07   -0.19206E-07  4524   0.107E-03
  30 F= -.21557316E+03 E0= -.21557305E+03  d E =-.688616E-02  mag=    -0.0000
 trial-energy change:   -0.006886  1 .order   -0.006891   -0.009934   -0.003848
 step:   1.0131(harm=  1.0131)  dis= 0.01098  next Energy=  -215.574383 (dE=-0.811E-02)
 bond charge predicted
       N       E                     dE             d eps       ncg     rms          rms(c)
DAV:   1    -0.215574151127E+03   -0.99053E-03   -0.14818E+00  6976   0.363E+00    0.542E-01
RMM:   2    -0.215583111998E+03   -0.89609E-02   -0.46579E-02  6916   0.695E-01    0.109E+00
RMM:   3    -0.215575393255E+03    0.77187E-02   -0.53690E-03  6986   0.229E-01    0.281E-01
RMM:   4    -0.215575801235E+03   -0.40798E-03   -0.13726E-03  7080   0.980E-02    0.502E-01
RMM:   5    -0.215574554453E+03    0.12468E-02   -0.47931E-04  7122   0.599E-02    0.166E-01
RMM:   6    -0.215574419517E+03    0.13494E-03   -0.43636E-04  7090   0.531E-02    0.816E-02
RMM:   7    -0.215574399328E+03    0.20189E-04   -0.13047E-04  7247   0.291E-02    0.695E-02
RMM:   8    -0.215574368254E+03    0.31074E-04   -0.39883E-05  7470   0.150E-02    0.216E-02
RMM:   9    -0.215574366790E+03    0.14645E-05   -0.10023E-05  7811   0.807E-03    0.147E-02
RMM:  10    -0.215574367268E+03   -0.47791E-06   -0.21562E-06  8223   0.387E-03    0.696E-03
RMM:  11    -0.215574367682E+03   -0.41431E-06   -0.77156E-07  6708   0.191E-03    0.298E-03
RMM:  12    -0.215574367715E+03   -0.32931E-07   -0.26398E-07  4821   0.137E-03
  31 F= -.21557437E+03 E0= -.21557435E+03  d E =-.809320E-02  mag=    -0.0000
 curvature:  -1.42 expect dE=-0.157E-01 dE for cont linesearch -0.964E-08
 trial: gam= 0.66894 g(F)=  0.882E-02 g(S)=  0.219E-02 ort =-0.175E-04 (trialstep = 0.699E+00)
 search vector abs. value=  0.311E-01
 bond charge predicted
       N       E                     dE             d eps       ncg     rms          rms(c)
DAV:   1    -0.215573039273E+03    0.13284E-02   -0.36296E+00  6912   0.584E+00    0.677E-01
RMM:   2    -0.215590343869E+03   -0.17305E-01   -0.10155E-01  6912   0.105E+00    0.127E+00
RMM:   3    -0.215580461181E+03    0.98827E-02   -0.84558E-03  7048   0.299E-01    0.448E-01
RMM:   4    -0.215581561771E+03   -0.11006E-02   -0.21133E-03  7424   0.111E-01    0.714E-01
RMM:   5    -0.215578997087E+03    0.25647E-02   -0.80906E-04  7040   0.769E-02    0.181E-01
RMM:   6    -0.215578991634E+03    0.54532E-05   -0.80003E-04  6995   0.740E-02    0.161E-01
RMM:   7    -0.215578795210E+03    0.19642E-03   -0.25927E-04  7181   0.421E-02    0.608E-02
RMM:   8    -0.215578767331E+03    0.27879E-04   -0.58189E-05  7888   0.173E-02    0.297E-02
RMM:   9    -0.215578762518E+03    0.48134E-05   -0.14763E-05  7731   0.989E-03    0.213E-02
RMM:  10    -0.215578760952E+03    0.15655E-05   -0.42774E-06  8087   0.534E-03    0.901E-03
RMM:  11    -0.215578760391E+03    0.56136E-06   -0.11978E-06  7352   0.228E-03    0.323E-03
RMM:  12    -0.215578760305E+03    0.85223E-07   -0.41210E-07  5270   0.143E-03
  32 F= -.21557876E+03 E0= -.21557889E+03  d E =-.439259E-02  mag=    -0.0000
 trial-energy change:   -0.004393  1 .order   -0.004414   -0.007693   -0.001135
 step:   0.8229(harm=  0.8201)  dis= 0.00774  next Energy=  -215.578861 (dE=-0.449E-02)
 bond charge predicted
       N       E                     dE             d eps       ncg     rms          rms(c)
DAV:   1    -0.215578679662E+03    0.80729E-04   -0.11382E-01  7072   0.103E+00    0.121E-01
RMM:   2    -0.215579222049E+03   -0.54239E-03   -0.31967E-03  6912   0.187E-01    0.224E-01
RMM:   3    -0.215578912258E+03    0.30979E-03   -0.26563E-04  7052   0.532E-02    0.801E-02
RMM:   4    -0.215578946823E+03   -0.34564E-04   -0.67968E-05  7379   0.200E-02    0.128E-01
RMM:   5    -0.215578865298E+03    0.81525E-04   -0.26016E-05  7043   0.137E-02    0.331E-02
RMM:   6    -0.215578866608E+03   -0.13099E-05   -0.25534E-05  7014   0.131E-02    0.344E-02
RMM:   7    -0.215578856995E+03    0.96130E-05   -0.98720E-06  7123   0.824E-03    0.950E-03
RMM:   8    -0.215578856191E+03    0.80332E-06   -0.18554E-06  7672   0.313E-03    0.516E-03
RMM:   9    -0.215578855942E+03    0.24943E-06   -0.41083E-07  5073   0.172E-03    0.358E-03
RMM:  10    -0.215578855787E+03    0.15459E-06   -0.13277E-07  4222   0.114E-03    0.168E-03
RMM:  11    -0.215578855735E+03    0.52634E-07   -0.56123E-08  4080   0.827E-04
  33 F= -.21557886E+03 E0= -.21557901E+03  d E =-.448802E-02  mag=    -0.0000
 curvature:  -1.16 expect dE=-0.659E-02 dE for cont linesearch -0.825E-07
 trial: gam= 0.51708 g(F)=  0.411E-02 g(S)=  0.157E-02 ort =-0.471E-04 (trialstep = 0.724E+00)
 search vector abs. value=  0.140E-01
 bond charge predicted
       N       E                     dE             d eps       ncg     rms          rms(c)
DAV:   1    -0.215579108682E+03   -0.25289E-03   -0.16701E+00  6912   0.387E+00    0.481E-01
RMM:   2    -0.215582454584E+03   -0.33459E-02   -0.44290E-02  6912   0.679E-01    0.437E-01
RMM:   3    -0.215582658846E+03   -0.20426E-03   -0.35256E-03  7210   0.189E-01    0.530E-01
RMM:   4    -0.215581947950E+03    0.71090E-03   -0.96873E-04  7030   0.845E-02    0.368E-01
RMM:   5    -0.215581360915E+03    0.58704E-03   -0.71661E-04  6982   0.712E-02    0.248E-01
RMM:   6    -0.215581341877E+03    0.19038E-04   -0.53761E-04  7098   0.586E-02    0.202E-01
RMM:   7    -0.215581089644E+03    0.25223E-03   -0.17437E-04  7066   0.351E-02    0.558E-02
RMM:   8    -0.215581073492E+03    0.16152E-04   -0.49635E-05  7278   0.179E-02    0.247E-02
RMM:   9    -0.215581070782E+03    0.27097E-05   -0.14521E-05  7664   0.931E-03    0.151E-02
RMM:  10    -0.215581071264E+03   -0.48152E-06   -0.36205E-06  8766   0.444E-03    0.845E-03
RMM:  11    -0.215581071874E+03   -0.61035E-06   -0.10660E-06  7883   0.209E-03    0.446E-03
RMM:  12    -0.215581071947E+03   -0.72567E-07   -0.33507E-07  5217   0.137E-03
  34 F= -.21558107E+03 E0= -.21558141E+03  d E =-.221621E-02  mag=    -0.0000
 trial-energy change:   -0.002216  1 .order   -0.002210   -0.004098   -0.000322
 step:   0.7857(harm=  0.7857)  dis= 0.00469  next Energy=  -215.581080 (dE=-0.222E-02)
 bond charge predicted
       N       E                     dE             d eps       ncg     rms          rms(c)
DAV:   1    -0.215581069617E+03    0.22571E-05   -0.12173E-02  7200   0.331E-01    0.412E-02
RMM:   2    -0.215581095654E+03   -0.26037E-04   -0.32306E-04  6912   0.580E-02    0.389E-02
RMM:   3    -0.215581096806E+03   -0.11518E-05   -0.25866E-05  7238   0.162E-02    0.471E-02
RMM:   4    -0.215581091106E+03    0.57000E-05   -0.71979E-06  7024   0.731E-03    0.315E-02
RMM:   5    -0.215581086693E+03    0.44128E-05   -0.53392E-06  6952   0.618E-03    0.203E-02
RMM:   6    -0.215581086963E+03   -0.26958E-06   -0.38948E-06  7126   0.500E-03    0.165E-02
RMM:   7    -0.215581085466E+03    0.14969E-05   -0.12602E-06  6436   0.298E-03    0.443E-03
RMM:   8    -0.215581085487E+03   -0.20871E-07   -0.30410E-07  4618   0.156E-03
  35 F= -.21558109E+03 E0= -.21558143E+03  d E =-.222975E-02  mag=    -0.0000
 curvature:  -0.97 expect dE=-0.330E-02 dE for cont linesearch -0.192E-08
 trial: gam= 0.59462 g(F)=  0.254E-02 g(S)=  0.863E-03 ort =-0.526E-05 (trialstep = 0.736E+00)
 search vector abs. value=  0.833E-02
 bond charge predicted
       N       E                     dE             d eps       ncg     rms          rms(c)
[...]
 search vector abs. value=  0.174E-02
 bond charge predicted
       N       E                     dE             d eps       ncg     rms          rms(c)
DAV:   1    -0.215592705917E+03   -0.29901E-04   -0.93918E-02  6944   0.929E-01    0.853E-02
RMM:   2    -0.215592959730E+03   -0.25381E-03   -0.22739E-03  6912   0.155E-01    0.111E-01
RMM:   3    -0.215592904144E+03    0.55586E-04   -0.17183E-04  7186   0.437E-02    0.763E-02
RMM:   4    -0.215592899072E+03    0.50715E-05   -0.36139E-05  7696   0.148E-02    0.683E-02
RMM:   5    -0.215592874855E+03    0.24218E-04   -0.16231E-05  7322   0.984E-03    0.387E-02
RMM:   6    -0.215592873322E+03    0.15322E-05   -0.15505E-05  7116   0.964E-03    0.293E-02
RMM:   7    -0.215592867440E+03    0.58821E-05   -0.68985E-06  7082   0.677E-03    0.671E-03
RMM:   8    -0.215592867096E+03    0.34389E-06   -0.12722E-06  7052   0.286E-03    0.290E-03
RMM:   9    -0.215592867037E+03    0.59736E-07   -0.30185E-07  4773   0.138E-03
  55 F= -.21559287E+03 E0= -.21559242E+03  d E =-.191098E-03  mag=    -0.0000
 trial-energy change:   -0.000191  1 .order   -0.000189   -0.000238   -0.000141
 step:   1.0287(harm=  1.1686)  dis= 0.00292  next Energy=  -215.592951 (dE=-0.275E-03)
 bond charge predicted
       N       E                     dE             d eps       ncg     rms          rms(c)
DAV:   1    -0.215592754178E+03    0.11292E-03   -0.12455E-01  6912   0.107E+00    0.985E-02
RMM:   2    -0.215593092316E+03   -0.33814E-03   -0.30232E-03  6912   0.179E-01    0.129E-01
RMM:   3    -0.215593017254E+03    0.75061E-04   -0.22867E-04  7188   0.504E-02    0.876E-02
RMM:   4    -0.215593010999E+03    0.62549E-05   -0.47975E-05  7694   0.171E-02    0.789E-02
RMM:   5    -0.215592978706E+03    0.32294E-04   -0.21607E-05  7324   0.114E-02    0.448E-02
RMM:   6    -0.215592976514E+03    0.21918E-05   -0.20630E-05  7122   0.111E-02    0.336E-02
RMM:   7    -0.215592968768E+03    0.77462E-05   -0.91126E-06  7078   0.778E-03    0.782E-03
RMM:   8    -0.215592968297E+03    0.47136E-06   -0.17054E-06  7330   0.330E-03    0.335E-03
RMM:   9    -0.215592968213E+03    0.83590E-07   -0.41736E-07  5172   0.154E-03
  56 F= -.21559297E+03 E0= -.21559249E+03  d E =-.292274E-03  mag=     0.0000
 curvature:  -1.96 expect dE=-0.644E-03 dE for cont linesearch -0.433E-05
 trial: gam= 0.66395 g(F)=  0.246E-03 g(S)=  0.818E-04 ort = 0.620E-04 (trialstep = 0.588E+00)
 search vector abs. value=  0.118E-02
 bond charge predicted
       N       E                     dE             d eps       ncg     rms          rms(c)
DAV:   1    -0.215593045380E+03   -0.77084E-04   -0.90846E-02  6912   0.907E-01    0.991E-02
RMM:   2    -0.215593238679E+03   -0.19330E-03   -0.24774E-03  6912   0.162E-01    0.117E-01
RMM:   3    -0.215593183674E+03    0.55005E-04   -0.20858E-04  7336   0.455E-02    0.755E-02
RMM:   4    -0.215593171095E+03    0.12580E-04   -0.60104E-05  7164   0.200E-02    0.849E-02
RMM:   5    -0.215593139462E+03    0.31632E-04   -0.18226E-05  7058   0.121E-02    0.375E-02
RMM:   6    -0.215593141389E+03   -0.19263E-05   -0.25309E-05  7098   0.129E-02    0.439E-02
RMM:   7    -0.215593129751E+03    0.11638E-04   -0.10037E-05  7038   0.828E-03    0.107E-02
RMM:   8    -0.215593128433E+03    0.13178E-05   -0.25570E-06  8050   0.364E-03    0.467E-03
RMM:   9    -0.215593128068E+03    0.36552E-06   -0.51520E-07  5716   0.187E-03    0.267E-03
RMM:  10    -0.215593127903E+03    0.16454E-06   -0.14156E-07  4388   0.120E-03    0.195E-03
RMM:  11    -0.215593127789E+03    0.11445E-06   -0.72335E-08  4072   0.908E-04    0.101E-03
RMM:  12    -0.215593127733E+03    0.56047E-07   -0.31114E-08  4012   0.553E-04
  57 F= -.21559313E+03 E0= -.21559264E+03  d E =-.159520E-03  mag=     0.0000
 trial-energy change:   -0.000160  1 .order   -0.000161   -0.000217   -0.000104
 step:   1.2222(harm=  1.1335)  dis= 0.00216  next Energy=  -215.593182 (dE=-0.214E-03)
 bond charge predicted
       N       E                     dE             d eps       ncg     rms          rms(c)
DAV:   1    -0.215593081224E+03    0.46565E-04   -0.10546E-01  6912   0.977E-01    0.107E-01
RMM:   2    -0.215593303858E+03   -0.22263E-03   -0.28672E-03  6912   0.174E-01    0.126E-01
RMM:   3    -0.215593240749E+03    0.63110E-04   -0.24114E-04  7338   0.489E-02    0.813E-02
RMM:   4    -0.215593226203E+03    0.14546E-04   -0.69498E-05  7162   0.215E-02    0.915E-02
RMM:   5    -0.215593189558E+03    0.36645E-04   -0.21077E-05  7044   0.130E-02    0.405E-02
RMM:   6    -0.215593191937E+03   -0.23790E-05   -0.29332E-05  7094   0.139E-02    0.476E-02
RMM:   7    -0.215593178321E+03    0.13616E-04   -0.11687E-05  7034   0.894E-03    0.116E-02
RMM:   8    -0.215593176818E+03    0.15028E-05   -0.29638E-06  8116   0.392E-03    0.499E-03
RMM:   9    -0.215593176418E+03    0.40096E-06   -0.61457E-07  6296   0.200E-03    0.278E-03
RMM:  10    -0.215593176230E+03    0.18724E-06   -0.15016E-07  4440   0.115E-03    0.203E-03
RMM:  11    -0.215593176120E+03    0.11007E-06   -0.77208E-08  4128   0.961E-04    0.119E-03
RMM:  12    -0.215593176056E+03    0.64163E-07   -0.35461E-08  4036   0.580E-04
  58 F= -.21559318E+03 E0= -.21559267E+03  d E =-.207843E-03  mag=    -0.0000
 curvature:  -1.76 expect dE=-0.774E-03 dE for cont linesearch -0.135E-05
 trial: gam= 1.60850 g(F)=  0.276E-03 g(S)=  0.163E-03 ort =-0.301E-04 (trialstep = 0.249E+00)
 search vector abs. value=  0.339E-02
 bond charge predicted
       N       E                     dE             d eps       ncg     rms          rms(c)
DAV:   1    -0.215593203726E+03   -0.27606E-04   -0.45730E-02  7008   0.635E-01    0.646E-02
RMM:   2    -0.215593348834E+03   -0.14511E-03   -0.11210E-03  6912   0.110E-01    0.117E-01
RMM:   3    -0.215593278652E+03    0.70181E-04   -0.98829E-05  7170   0.328E-02    0.471E-02
RMM:   4    -0.215593281349E+03   -0.26961E-05   -0.22990E-05  7616   0.115E-02    0.590E-02
RMM:   5    -0.215593264064E+03    0.17285E-04   -0.94023E-06  7090   0.777E-03    0.287E-02
RMM:   6    -0.215593262241E+03    0.18227E-05   -0.83959E-06  7098   0.725E-03    0.223E-02
RMM:   7    -0.215593258983E+03    0.32577E-05   -0.54137E-06  7016   0.592E-03    0.680E-03
RMM:   8    -0.215593258592E+03    0.39136E-06   -0.96620E-07  6722   0.268E-03    0.244E-03
RMM:   9    -0.215593258554E+03    0.38042E-07   -0.14971E-07  4248   0.106E-03
  59 F= -.21559326E+03 E0= -.21559273E+03  d E =-.824977E-04  mag=    -0.0000
 trial-energy change:   -0.000082  1 .order   -0.000082   -0.000097   -0.000068
 step:   0.8267(harm=  0.8267)  dis= 0.00239  next Energy=  -215.593337 (dE=-0.161E-03)
 bond charge predicted
       N       E                     dE             d eps       ncg     rms          rms(c)
DAV:   1    -0.215593049896E+03    0.20870E-03   -0.24758E-01  6912   0.148E+00    0.150E-01
RMM:   2    -0.215593825340E+03   -0.77544E-03   -0.60654E-03  6912   0.257E-01    0.269E-01
RMM:   3    -0.215593452553E+03    0.37279E-03   -0.53203E-04  7170   0.761E-02    0.109E-01
RMM:   4    -0.215593468120E+03   -0.15566E-04   -0.12384E-04  7610   0.268E-02    0.138E-01
RMM:   5    -0.215593374343E+03    0.93776E-04   -0.50523E-05  7096   0.180E-02    0.670E-02
RMM:   6    -0.215593363712E+03    0.10631E-04   -0.45142E-05  7110   0.168E-02    0.518E-02
RMM:   7    -0.215593345933E+03    0.17779E-04   -0.29223E-05  7046   0.138E-02    0.157E-02
RMM:   8    -0.215593343809E+03    0.21244E-05   -0.52887E-06  7380   0.621E-03    0.543E-03
RMM:   9    -0.215593343606E+03    0.20213E-06   -0.10186E-06  6838   0.225E-03    0.454E-03
RMM:  10    -0.215593343509E+03    0.97858E-07   -0.64430E-07  6364   0.191E-03
  60 F= -.21559334E+03 E0= -.21559276E+03  d E =-.167453E-03  mag=    -0.0000
 curvature:  -3.59 expect dE=-0.123E-02 dE for cont linesearch -0.837E-07
 trial: gam= 0.34752 g(F)=  0.228E-03 g(S)=  0.115E-03 ort = 0.889E-05 (trialstep = 0.364E+00)
 search vector abs. value=  0.759E-03
 bond charge predicted
       N       E                     dE             d eps       ncg     rms          rms(c)
DAV:   1    -0.215593447427E+03   -0.10382E-03   -0.20303E-02  7040   0.433E-01    0.609E-02
RMM:   2    -0.215593541146E+03   -0.93719E-04   -0.61540E-04  6912   0.830E-02    0.110E-01
RMM:   3    -0.215593471230E+03    0.69916E-04   -0.65909E-05  7076   0.258E-02    0.582E-02
RMM:   4    -0.215593464069E+03    0.71614E-05   -0.17172E-05  7442   0.104E-02    0.471E-02
RMM:   5    -0.215593450317E+03    0.13751E-04   -0.86801E-06  7030   0.783E-03    0.240E-02
RMM:   6    -0.215593447834E+03    0.24831E-05   -0.63960E-06  7030   0.667E-03    0.182E-02
RMM:   7    -0.215593445498E+03    0.23360E-05   -0.28967E-06  7034   0.438E-03    0.574E-03
RMM:   8    -0.215593445155E+03    0.34290E-06   -0.53610E-07  5462   0.214E-03    0.178E-03
RMM:   9    -0.215593445134E+03    0.20718E-07   -0.12649E-07  4168   0.111E-03
  61 F= -.21559345E+03 E0= -.21559285E+03  d E =-.101626E-03  mag=    -0.0000
 trial-energy change:   -0.000102  1 .order   -0.000099   -0.000126   -0.000072
 step:   0.6924(harm=  0.8569)  dis= 0.00084  next Energy=  -215.593480 (dE=-0.136E-03)
 bond charge predicted
       N       E                     dE             d eps       ncg     rms          rms(c)
DAV:   1    -0.215593490324E+03   -0.45169E-04   -0.16497E-02  6976   0.391E-01    0.553E-02
RMM:   2    -0.215593568011E+03   -0.77687E-04   -0.50267E-04  6912   0.750E-02    0.100E-01
RMM:   3    -0.215593509623E+03    0.58387E-04   -0.54340E-05  7070   0.234E-02    0.527E-02
RMM:   4    -0.215593503754E+03    0.58691E-05   -0.14051E-05  7446   0.934E-03    0.425E-02
RMM:   5    -0.215593492664E+03    0.11090E-04   -0.70630E-06  7022   0.706E-03    0.220E-02
RMM:   6    -0.215593490582E+03    0.20823E-05   -0.52359E-06  7022   0.603E-03    0.166E-02
RMM:   7    -0.215593488651E+03    0.19305E-05   -0.23759E-06  7010   0.397E-03    0.523E-03
RMM:   8    -0.215593488364E+03    0.28766E-06   -0.42812E-07  5020   0.194E-03    0.166E-03
RMM:   9    -0.215593488346E+03    0.17313E-07   -0.11144E-07  4116   0.109E-03
  62 F= -.21559349E+03 E0= -.21559289E+03  d E =-.144838E-03  mag=    -0.0000
 curvature:  -0.83 expect dE=-0.137E-03 dE for cont linesearch -0.443E-05
 ZBRENT: extrapolating
 opt :   0.8460  next Energy=  -215.593493 (dE=-0.150E-03)
 bond charge predicted
       N       E                     dE             d eps       ncg     rms          rms(c)
DAV:   1    -0.215593493978E+03   -0.56143E-05   -0.36121E-03  7232   0.183E-01    0.259E-02
RMM:   2    -0.215593511186E+03   -0.17208E-04   -0.11062E-04  6912   0.351E-02    0.473E-02
RMM:   3    -0.215593498293E+03    0.12893E-04   -0.12017E-05  7066   0.110E-02    0.248E-02
RMM:   4    -0.215593496971E+03    0.13222E-05   -0.31275E-06  7336   0.438E-03    0.198E-02
RMM:   5    -0.215593494560E+03    0.24109E-05   -0.15632E-06  6922   0.332E-03    0.103E-02
RMM:   6    -0.215593494098E+03    0.46251E-06   -0.11471E-06  6618   0.284E-03    0.769E-03
RMM:   7    -0.215593493653E+03    0.44426E-06   -0.51091E-07  5566   0.191E-03    0.228E-03
RMM:   8    -0.215593493585E+03    0.68263E-07   -0.93541E-08  4048   0.110E-03
  63 F= -.21559349E+03 E0= -.21559289E+03  d E =-.150076E-03  mag=    -0.0000
 curvature:  -0.92 expect dE=-0.215E-03 dE for cont linesearch -0.834E-09
 trial: gam= 0.72147 g(F)=  0.222E-03 g(S)=  0.118E-04 ort = 0.830E-06 (trialstep = 0.461E+00)
 search vector abs. value=  0.630E-03
 bond charge predicted
       N       E                     dE             d eps       ncg     rms          rms(c)
DAV:   1    -0.215593554311E+03   -0.60658E-04   -0.28284E-02  6912   0.509E-01    0.585E-02
RMM:   2    -0.215593666340E+03   -0.11203E-03   -0.75298E-04  6912   0.905E-02    0.109E-01
RMM:   3    -0.215593613458E+03    0.52882E-04   -0.66903E-05  7162   0.264E-02    0.666E-02
RMM:   4    -0.215593593101E+03    0.20357E-04   -0.20053E-05  7502   0.112E-02    0.346E-02
RMM:   5    -0.215593585151E+03    0.79502E-05   -0.66331E-06  7180   0.656E-03    0.162E-02
RMM:   6    -0.215593587850E+03   -0.26987E-05   -0.67137E-06  7124   0.649E-03    0.294E-02
RMM:   7    -0.215593582886E+03    0.49638E-05   -0.30695E-06  7056   0.468E-03    0.387E-03
RMM:   8    -0.215593582609E+03    0.27709E-06   -0.57332E-07  5806   0.204E-03    0.210E-03
RMM:   9    -0.215593582575E+03    0.34441E-07   -0.12532E-07  4222   0.106E-03
  64 F= -.21559358E+03 E0= -.21559301E+03  d E =-.889896E-04  mag=    -0.0000
 trial-energy change:   -0.000089  1 .order   -0.000086   -0.000108   -0.000064
 step:   0.8363(harm=  1.1273)  dis= 0.00119  next Energy=  -215.593610 (dE=-0.117E-03)
 bond charge predicted
       N       E                     dE             d eps       ncg     rms          rms(c)
DAV:   1    -0.215593602417E+03   -0.19808E-04   -0.18844E-02  6944   0.416E-01    0.480E-02
RMM:   2    -0.215593678963E+03   -0.76546E-04   -0.50357E-04  6912   0.739E-02    0.906E-02
RMM:   3    -0.215593642055E+03    0.36908E-04   -0.45015E-05  7160   0.216E-02    0.544E-02
RMM:   4    -0.215593628366E+03    0.13689E-04   -0.13571E-05  7502   0.923E-03    0.282E-02
RMM:   5    -0.215593623090E+03    0.52758E-05   -0.44787E-06  7190   0.537E-03    0.132E-02
RMM:   6    -0.215593624878E+03   -0.17880E-05   -0.44936E-06  7092   0.531E-03    0.240E-02
RMM:   7    -0.215593621561E+03    0.33166E-05   -0.20704E-06  7034   0.384E-03    0.319E-03
RMM:   8    -0.215593621369E+03    0.19270E-06   -0.35712E-07  4964   0.168E-03    0.184E-03
RMM:   9    -0.215593621346E+03    0.23007E-07   -0.98065E-08  4148   0.105E-03
  65 F= -.21559362E+03 E0= -.21559307E+03  d E =-.127761E-03  mag=    -0.0000
 curvature:  -1.23 expect dE=-0.173E-03 dE for cont linesearch -0.738E-05
 ZBRENT: increasing intervall
 opt :   1.5879  next Energy=  -215.593610 (dE=-0.116E-03)
 bond charge predicted
       N       E                     dE             d eps       ncg     rms          rms(c)
DAV:   1    -0.215593533060E+03    0.88309E-04   -0.75359E-02  6912   0.831E-01    0.956E-02
RMM:   2    -0.215593832983E+03   -0.29992E-03   -0.20080E-03  6912   0.148E-01    0.179E-01
RMM:   3    -0.215593690509E+03    0.14247E-03   -0.17852E-04  7160   0.431E-02    0.109E-01
RMM:   4    -0.215593635986E+03    0.54522E-04   -0.53394E-05  7494   0.183E-02    0.562E-02
RMM:   5    -0.215593614822E+03    0.21164E-04   -0.17739E-05  7190   0.107E-02    0.263E-02
RMM:   6    -0.215593622122E+03   -0.73003E-05   -0.17872E-05  7132   0.106E-02    0.480E-02
RMM:   7    -0.215593608990E+03    0.13133E-04   -0.81332E-06  7106   0.762E-03    0.636E-03
RMM:   8    -0.215593608273E+03    0.71611E-06   -0.17006E-06  7348   0.333E-03    0.318E-03
RMM:   9    -0.215593608187E+03    0.86227E-07   -0.31436E-07  4800   0.138E-03
  66 F= -.21559361E+03 E0= -.21559309E+03  d E =-.114602E-03  mag=    -0.0000
 curvature:   1.93 expect dE= 0.926E-03 dE for cont linesearch  0.263E-04
 ZBRENT: bracketing found
 ZBRENT: interpolating
 opt :   1.1363  next Energy=  -215.593631 (dE=-0.137E-03)
 bond charge predicted
       N       E                     dE             d eps       ncg     rms          rms(c)
DAV:   1    -0.215593605002E+03    0.32712E-05   -0.27185E-02  6912   0.499E-01    0.570E-02
RMM:   2    -0.215593707980E+03   -0.10298E-03   -0.71858E-04  6912   0.885E-02    0.104E-01
RMM:   3    -0.215593660913E+03    0.47067E-04   -0.63079E-05  7158   0.257E-02    0.654E-02
RMM:   4    -0.215593641234E+03    0.19678E-04   -0.18529E-05  7472   0.109E-02    0.333E-02
RMM:   5    -0.215593633576E+03    0.76584E-05   -0.63141E-06  7152   0.642E-03    0.158E-02
RMM:   6    -0.215593636209E+03   -0.26331E-05   -0.63178E-06  7122   0.634E-03    0.287E-02
RMM:   7    -0.215593631629E+03    0.45794E-05   -0.28898E-06  7034   0.455E-03    0.378E-03
RMM:   8    -0.215593631377E+03    0.25207E-06   -0.52945E-07  5672   0.198E-03    0.204E-03
RMM:   9    -0.215593631399E+03   -0.22032E-07   -0.11643E-07  4174   0.105E-03
  67 F= -.21559363E+03 E0= -.21559309E+03  d E =-.137814E-03  mag=     0.0000
 curvature:  -0.68 expect dE=-0.157E-03 dE for cont linesearch -0.366E-08
 trial: gam= 0.96895 g(F)=  0.160E-03 g(S)=  0.715E-04 ort = 0.185E-05 (trialstep = 0.454E+00)
 search vector abs. value=  0.827E-03
 bond charge predicted
       N       E                     dE             d eps       ncg     rms          rms(c)
DAV:   1    -0.215593652255E+03   -0.20878E-04   -0.37193E-02  6912   0.573E-01    0.631E-02
RMM:   2    -0.215593808727E+03   -0.15647E-03   -0.95059E-04  6912   0.999E-02    0.113E-01
RMM:   3    -0.215593744100E+03    0.64627E-04   -0.84787E-05  7106   0.297E-02    0.746E-02
RMM:   4    -0.215593725154E+03    0.18947E-04   -0.19882E-05  7510   0.113E-02    0.455E-02
RMM:   5    -0.215593716567E+03    0.85861E-05   -0.61993E-06  7094   0.622E-03    0.268E-02
RMM:   6    -0.215593717972E+03   -0.14049E-05   -0.79592E-06  7142   0.686E-03    0.267E-02
RMM:   7    -0.215593713827E+03    0.41454E-05   -0.40810E-06  7084   0.505E-03    0.683E-03
RMM:   8    -0.215593713471E+03    0.35572E-06   -0.80164E-07  6530   0.231E-03    0.261E-03
RMM:   9    -0.215593713424E+03    0.46806E-07   -0.15795E-07  4322   0.107E-03
  68 F= -.21559371E+03 E0= -.21559320E+03  d E =-.820250E-04  mag=     0.0000
 trial-energy change:   -0.000082  1 .order   -0.000081   -0.000106   -0.000057
 step:   0.9215(harm=  0.9829)  dis= 0.00168  next Energy=  -215.593743 (dE=-0.112E-03)
 bond charge predicted
       N       E                     dE             d eps       ncg     rms          rms(c)
DAV:   1    -0.215593682002E+03    0.31469E-04   -0.39486E-02  6912   0.590E-01    0.656E-02
RMM:   2    -0.215593852714E+03   -0.17071E-03   -0.10152E-03  6912   0.103E-01    0.119E-01
RMM:   3    -0.215593780765E+03    0.71949E-04   -0.91705E-05  7114   0.308E-02    0.775E-02
RMM:   4    -0.215593760088E+03    0.20677E-04   -0.21785E-05  7522   0.118E-02    0.471E-02
RMM:   5    -0.215593750825E+03    0.92632E-05   -0.67301E-06  7116   0.646E-03    0.274E-02
RMM:   6    -0.215593752325E+03   -0.15002E-05   -0.84715E-06  7142   0.707E-03    0.274E-02
RMM:   7    -0.215593747966E+03    0.43592E-05   -0.43209E-06  7084   0.519E-03    0.704E-03
RMM:   8    -0.215593747589E+03    0.37661E-06   -0.87293E-07  6668   0.238E-03    0.267E-03
RMM:   9    -0.215593747541E+03    0.47934E-07   -0.16768E-07  4344   0.109E-03
  69 F= -.21559375E+03 E0= -.21559326E+03  d E =-.116142E-03  mag=    -0.0000
 curvature:  -1.72 expect dE=-0.196E-03 dE for cont linesearch -0.563E-06
 trial: gam= 0.42237 g(F)=  0.869E-04 g(S)=  0.274E-04 ort = 0.165E-04 (trialstep = 0.547E+00)
 search vector abs. value=  0.276E-03
 bond charge predicted
       N       E                     dE             d eps       ncg     rms          rms(c)
DAV:   1    -0.215593791076E+03   -0.43487E-04   -0.17340E-02  6944   0.388E-01    0.450E-02
RMM:   2    -0.215593822171E+03   -0.31096E-04   -0.46183E-04  6912   0.693E-02    0.510E-02
RMM:   3    -0.215593822427E+03   -0.25501E-06   -0.38091E-05  7460   0.191E-02    0.510E-02
RMM:   4    -0.215593810209E+03    0.12217E-04   -0.13588E-05  7104   0.984E-03    0.357E-02
RMM:   5    -0.215593802900E+03    0.73092E-05   -0.49903E-06  7114   0.616E-03    0.125E-02
RMM:   6    -0.215593802183E+03    0.71698E-06   -0.38713E-06  7162   0.510E-03    0.116E-02
RMM:   7    -0.215593801354E+03    0.82937E-06   -0.13071E-06  6630   0.276E-03    0.540E-03
RMM:   8    -0.215593800951E+03    0.40257E-06   -0.38298E-07  5100   0.164E-03    0.215E-03
RMM:   9    -0.215593800807E+03    0.14434E-06   -0.11375E-07  4130   0.121E-03    0.137E-03
RMM:  10    -0.215593800744E+03    0.63010E-07   -0.46689E-08  3986   0.766E-04
  70 F= -.21559380E+03 E0= -.21559331E+03  d E =-.532029E-04  mag=    -0.0000
 trial-energy change:   -0.000053  1 .order   -0.000051   -0.000066   -0.000036
 step:   0.9236(harm=  1.1877)  dis= 0.00108  next Energy=  -215.593814 (dE=-0.662E-04)
 reached required accuracy - stopping structural energy minimisation
