unknown system                          
           1
    15.353919    0.000000   -1.145415
     0.000000    3.654968    0.000000
    -0.346841    0.000000   10.774386
   Sr   Ir   O 
   2  10  20
Direct configuration=     1
   0.74660000  0.50000000  0.12420000
   0.25340000  0.50000000  0.87580000
   0.00000000  0.50000000  0.00000000
   0.50000000  0.00000000  0.00000000
   0.99978000  0.00000000  0.26820000
   0.49978000  0.50000000  0.26820000
   0.00022000  0.00000000  0.73180000
   0.50022000  0.50000000  0.73180000
   0.34010000  0.00000000  0.48410000
   0.84010000  0.50000000  0.48410000
   0.65990000  0.00000000  0.51590000
   0.15990000  0.50000000  0.51590000
   0.56690000  0.00000000  0.17730000
   0.06690000  0.50000000  0.17730000
   0.43310000  0.00000000  0.82270000
   0.93310000  0.50000000  0.82270000
   0.09760000  0.00000000  0.42440000
   0.59760000  0.50000000  0.42440000
   0.90240000  0.00000000  0.57560000
   0.40240000  0.50000000  0.57560000
   0.76630000  0.00000000  0.39580000
   0.26630000  0.50000000  0.39580000
   0.23370000  0.00000000  0.60420000
   0.73370000  0.50000000  0.60420000
   0.42480000  0.00000000  0.33540000
   0.92480000  0.50000000  0.33540000
   0.57520000  0.00000000  0.66460000
   0.07520000  0.50000000  0.66460000
   0.92630000  0.00000000  0.07210000
   0.42630000  0.50000000  0.07210000
   0.07370000  0.00000000  0.92790000
   0.57370000  0.50000000  0.92790000
unknown system                          
           1
    14.349103    0.000000   -0.750660
     0.000000    3.089245    0.000000
    -0.104320    0.000000   10.007762
   Sr   Ir   O 
   2  10  20
Direct configuration=     2
   0.74644108  0.50000000  0.12630841
   0.25355892  0.50000000  0.87369159
  -0.00000000  0.50000000 -0.00000000
   0.50000000  0.00000000 -0.00000000
   0.00613806  0.00000000  0.26977592
   0.49813258  0.50000000  0.27282460
  -0.00613806 -0.00000000  0.73022408
   0.50186742  0.50000000  0.72717540
   0.34569627 -0.00000000  0.47424535
   0.84647722  0.50000000  0.48589420
   0.65430373  0.00000000  0.52575465
   0.15352278  0.50000000  0.51410580
   0.58366346  0.00000000  0.17838285
   0.07678668  0.50000000  0.17982096
   0.41633654  0.00000000  0.82161715
   0.92321332  0.50000000  0.82017904
   0.08746587  0.00000000  0.41214880
   0.58751777  0.50000000  0.41020100
   0.91253413 -0.00000000  0.58785120
   0.41248223  0.50000000  0.58979900
   0.76345087  0.00000000  0.36958131
   0.26464859  0.50000000  0.37927402
   0.23654913  0.00000000  0.63041869
   0.73535141  0.50000000  0.62072598
   0.42119490  0.00000000  0.33916885
   0.91850162  0.50000000  0.33732271
   0.57880510  0.00000000  0.66083115
   0.08149838  0.50000000  0.66267729
   0.91118427 -0.00000000  0.08761335
   0.41345554  0.50000000  0.08538378
   0.08881573  0.00000000  0.91238665
   0.58654446  0.50000000  0.91461622
unknown system                          
           1
    14.286143    0.000000   -0.725925
     0.000000    3.053797    0.000000
    -0.089124    0.000000    9.959726
   Sr   Ir   O 
   2  10  20
Direct configuration=     3
   0.74651192  0.50000000  0.12498571
   0.25348808  0.50000000  0.87501429
  -0.00000000  0.50000000  0.00000000
   0.50000000  0.00000000  0.00000000
   0.00208173  0.00000000  0.26859457
   0.49911202  0.50000000  0.26996202
  -0.00208173 -0.00000000  0.73140543
   0.50088798  0.50000000  0.73003798
   0.34228583 -0.00000000  0.48028321
   0.84240563  0.50000000  0.48457486
   0.65771417  0.00000000  0.51971679
   0.15759437  0.50000000  0.51542514
   0.57301237  0.00000000  0.17720234
   0.07047815  0.50000000  0.17793964
   0.42698763  0.00000000  0.82279766
   0.92952185  0.50000000  0.82206036
   0.09406978  0.00000000  0.42016352
   0.59411645  0.50000000  0.41944049
   0.90593022 -0.00000000  0.57983648
   0.40588355  0.50000000  0.58055951
   0.76563141  0.00000000  0.38617304
   0.26593137  0.50000000  0.38972771
   0.23436859  0.00000000  0.61382696
   0.73406863  0.50000000  0.61027229
   0.42342858  0.00000000  0.33690329
   0.92247032  0.50000000  0.33629959
   0.57657142  0.00000000  0.66309671
   0.07752968  0.50000000  0.66370041
   0.92055391 -0.00000000  0.07829607
   0.42141587  0.50000000  0.07740263
   0.07944609  0.00000000  0.92170393
   0.57858413  0.50000000  0.92259737
unknown system                          
           1
    14.265890    0.000000   -0.717969
     0.000000    3.042395    0.000000
    -0.084236    0.000000    9.944274
   Sr   Ir   O 
   2  10  20
Direct configuration=     4
   0.74651802  0.50000000  0.12489643
   0.25348198  0.50000000  0.87510357
  -0.00000000  0.50000000  0.00000000
   0.50000000  0.00000000  0.00000000
   0.00181104  0.00000000  0.26852367
   0.49918061  0.50000000  0.26976704
  -0.00181104 -0.00000000  0.73147633
   0.50081939  0.50000000  0.73023296
   0.34205104 -0.00000000  0.48069736
   0.84213406  0.50000000  0.48449469
   0.65794896  0.00000000  0.51930264
   0.15786594  0.50000000  0.51550531
   0.57229963  0.00000000  0.17714563
   0.07005722  0.50000000  0.17782640
   0.42770037  0.00000000  0.82285437
   0.92994278  0.50000000  0.82217360
   0.09450423  0.00000000  0.42068941
   0.59454930  0.50000000  0.42004891
   0.90549577 -0.00000000  0.57931059
   0.40545070  0.50000000  0.57995109
   0.76576057  0.00000000  0.38728635
   0.26600665  0.50000000  0.39042934
   0.23423943  0.00000000  0.61271365
   0.73399335  0.50000000  0.60957066
   0.42358062  0.00000000  0.33674584
   0.92273740  0.50000000  0.33622214
   0.57641938  0.00000000  0.66325416
   0.07726260  0.50000000  0.66377786
   0.92119151 -0.00000000  0.07764817
   0.42195763  0.50000000  0.07684778
   0.07880849  0.00000000  0.92235183
   0.57804237  0.50000000  0.92315222
unknown system                          
           1
    13.754731    0.000000   -0.804587
     0.000000    3.114892    0.000000
    -0.149486    0.000000    9.787517
   Sr   Ir   O 
   2  10  20
Direct configuration=     5
   0.74652003  0.50000000  0.12486757
   0.25347997  0.50000000  0.87513243
  -0.00000000  0.50000000  0.00000000
   0.50000000  0.00000000  0.00000000
   0.00172361  0.00000000  0.26850094
   0.49920283  0.50000000  0.26970397
  -0.00172361 -0.00000000  0.73149906
   0.50079717  0.50000000  0.73029603
   0.34197505 -0.00000000  0.48083138
   0.84204635  0.50000000  0.48446896
   0.65802495  0.00000000  0.51916862
   0.15795365  0.50000000  0.51553104
   0.57206937  0.00000000  0.17712780
   0.06992125  0.50000000  0.17779009
   0.42793063  0.00000000  0.82287220
   0.93007875  0.50000000  0.82220991
   0.09464442  0.00000000  0.42085908
   0.59468894  0.50000000  0.42024526
   0.90535558 -0.00000000  0.57914092
   0.40531106  0.50000000  0.57975474
   0.76580193  0.00000000  0.38764608
   0.26603074  0.50000000  0.39065606
   0.23419807  0.00000000  0.61235392
   0.73396926  0.50000000  0.60934394
   0.42362980  0.00000000  0.33669485
   0.92282371  0.50000000  0.33619692
   0.57637020  0.00000000  0.66330515
   0.07717629  0.50000000  0.66380308
   0.92139773 -0.00000000  0.07743832
   0.42213286  0.50000000  0.07666808
   0.07860227  0.00000000  0.92256168
   0.57786714  0.50000000  0.92333192
unknown system                          
           1
    13.652527    0.000000   -0.821906
     0.000000    3.129387    0.000000
    -0.162532    0.000000    9.756174
   Sr   Ir   O 
   2  10  20
Direct configuration=     6
   0.74637033  0.50000000  0.12774243
   0.25362967  0.50000000  0.87225757
  -0.00000000  0.50000000 -0.00000000
   0.50000000 -0.00000000 -0.00000000
   0.00290951 -0.00000000  0.26756506
   0.49793424  0.50000000  0.26762197
  -0.00290951 -0.00000000  0.73243494
   0.50206576  0.50000000  0.73237803
   0.34064251 -0.00000000  0.48292297
   0.84130459  0.50000000  0.48837053
   0.65935749 -0.00000000  0.51707703
   0.15869541  0.50000000  0.51162947
   0.57620199  0.00000000  0.18096126
   0.07017979  0.50000000  0.18176289
   0.42379801 -0.00000000  0.81903874
   0.92982021  0.50000000  0.81823711
   0.09384543  0.00000000  0.42101602
   0.59402969  0.50000000  0.42052263
   0.90615457 -0.00000000  0.57898398
   0.40597031  0.50000000  0.57947737
   0.76560103 -0.00000000  0.38307701
   0.26659342  0.50000000  0.39071748
   0.23439897 -0.00000000  0.61692299
   0.73340658  0.50000000  0.60928252
   0.42684331 -0.00000000  0.33379552
   0.92437118  0.50000000  0.33213536
   0.57315669 -0.00000000  0.66620448
   0.07562882  0.50000000  0.66786464
   0.91955287 -0.00000000  0.08144530
   0.42162987  0.50000000  0.07885857
   0.08044713 -0.00000000  0.91855470
   0.57837013  0.50000000  0.92114143
unknown system                          
           1
    13.216524    0.000000   -0.769715
     0.000000    3.169542    0.000000
    -0.119354    0.000000    9.767653
   Sr   Ir   O 
   2  10  20
Direct configuration=     7
   0.74634211  0.50000000  0.12832632
   0.25365789  0.50000000  0.87167368
  -0.00000000  0.50000000 -0.00000000
   0.50000000 -0.00000000 -0.00000000
   0.00315454 -0.00000000  0.26737769
   0.49766908  0.50000000  0.26719583
  -0.00315454 -0.00000000  0.73262231
   0.50233092  0.50000000  0.73280417
   0.34036820 -0.00000000  0.48334486
   0.84115459  0.50000000  0.48916167
   0.65963180 -0.00000000  0.51665514
   0.15884541  0.50000000  0.51083833
   0.57706288  0.00000000  0.18175017
   0.07023732  0.50000000  0.18257089
   0.42293712 -0.00000000  0.81824983
   0.92976268  0.50000000  0.81742911
   0.09367987  0.00000000  0.42104601
   0.59389323  0.50000000  0.42057742
   0.90632013 -0.00000000  0.57895399
   0.40610677  0.50000000  0.57942258
   0.76555486 -0.00000000  0.38214797
   0.26671018  0.50000000  0.39073130
   0.23444514 -0.00000000  0.61785203
   0.73328982  0.50000000  0.60926870
   0.42750694 -0.00000000  0.33321395
   0.92468813  0.50000000  0.33131363
   0.57249306 -0.00000000  0.66678605
   0.07531187  0.50000000  0.66868637
   0.91917419 -0.00000000  0.08225524
   0.42152770  0.50000000  0.07930254
   0.08082581 -0.00000000  0.91774476
   0.57847230  0.50000000  0.92069746
unknown system                          
           1
    13.197149    0.000000   -0.767396
     0.000000    3.171326    0.000000
    -0.117436    0.000000    9.768163
   Sr   Ir   O 
   2  10  20
Direct configuration=     8
   0.74610806  0.50000000  0.13357667
   0.25389194  0.50000000  0.86642333
  -0.00000000  0.50000000 -0.00000000
   0.50000000 -0.00000000 -0.00000000
   0.00138783  0.00000000  0.26502034
   0.49910791  0.50000000  0.26356325
  -0.00138783 -0.00000000  0.73497966
   0.50089209  0.50000000  0.73643675
   0.34289674  0.00000000  0.48274473
   0.84299761  0.50000000  0.48408189
   0.65710326 -0.00000000  0.51725527
   0.15700239  0.50000000  0.51591811
   0.58290332  0.00000000  0.18818997
   0.07304052  0.50000000  0.18914295
   0.41709668 -0.00000000  0.81181003
   0.92695948  0.50000000  0.81085705
   0.09580318  0.00000000  0.42462314
   0.59511078  0.50000000  0.42422533
   0.90419682 -0.00000000  0.57537686
   0.40488922  0.50000000  0.57577467
   0.76688603 -0.00000000  0.37561672
   0.26910000  0.50000000  0.38646061
   0.23311397  0.00000000  0.62438328
   0.73090000  0.50000000  0.61353939
   0.42849186 -0.00000000  0.33225476
   0.92544763  0.50000000  0.32770310
   0.57150814 -0.00000000  0.66774524
   0.07455237  0.50000000  0.67229690
   0.91637154 -0.00000000  0.08306086
   0.41977013  0.50000000  0.07810229
   0.08362846 -0.00000000  0.91693914
   0.58022987  0.50000000  0.92189771
unknown system                          
           1
    12.933064    0.000000   -0.756967
     0.000000    3.156784    0.000000
    -0.104661    0.000000    9.814690
   Sr   Ir   O 
   2  10  20
Direct configuration=     9
   0.74609655  0.50000000  0.13380968
   0.25390345  0.50000000  0.86619032
  -0.00000000  0.50000000 -0.00000000
   0.50000000 -0.00000000 -0.00000000
   0.00130707  0.00000000  0.26491595
   0.49917449  0.50000000  0.26340188
  -0.00130707 -0.00000000  0.73508405
   0.50082551  0.50000000  0.73659812
   0.34301290  0.00000000  0.48271779
   0.84308296  0.50000000  0.48385625
   0.65698710 -0.00000000  0.51728221
   0.15691704  0.50000000  0.51614375
   0.58317048  0.00000000  0.18847503
   0.07316824  0.50000000  0.18943424
   0.41682952 -0.00000000  0.81152497
   0.92683176  0.50000000  0.81056576
   0.09590013  0.00000000  0.42478162
   0.59516614  0.50000000  0.42438706
   0.90409987 -0.00000000  0.57521838
   0.40483386  0.50000000  0.57561294
   0.76694809 -0.00000000  0.37532673
   0.26921032  0.50000000  0.38627081
   0.23305191  0.00000000  0.62467327
   0.73078968  0.50000000  0.61372919
   0.42853721 -0.00000000  0.33221208
   0.92548302  0.50000000  0.32754279
   0.57146279  0.00000000  0.66778792
   0.07451698  0.50000000  0.67245721
   0.91624277 -0.00000000  0.08309695
   0.41968963  0.50000000  0.07804924
   0.08375723 -0.00000000  0.91690305
   0.58031037  0.50000000  0.92195076
unknown system                          
           1
    12.972914    0.000000   -0.758541
     0.000000    3.158978    0.000000
    -0.106589    0.000000    9.807669
   Sr   Ir   O 
   2  10  20
Direct configuration=    10
   0.74582998  0.50000000  0.13943892
   0.25417002  0.50000000  0.86056108
   0.00000000  0.50000000 -0.00000000
   0.50000000  0.00000000 -0.00000000
   0.00273013  0.00000000  0.26731520
   0.50257698  0.50000000  0.26450624
  -0.00273013 -0.00000000  0.73268480
   0.49742302  0.50000000  0.73549376
   0.34159830  0.00000000  0.47981786
   0.83970465  0.50000000  0.47765027
   0.65840170 -0.00000000  0.52018214
   0.16029535  0.50000000  0.52234973
   0.58730603  0.00000000  0.18902059
   0.07613952  0.50000000  0.19079747
   0.41269397 -0.00000000  0.81097941
   0.92386048  0.50000000  0.80920253
   0.09550714  0.00000000  0.42556329
   0.59448912  0.50000000  0.42525548
   0.90449286 -0.00000000  0.57443671
   0.40551088  0.50000000  0.57474452
   0.76836138  0.00000000  0.37081948
   0.27093837  0.50000000  0.38358484
   0.23163862  0.00000000  0.62918052
   0.72906163  0.50000000  0.61641516
   0.42944996 -0.00000000  0.32985785
   0.92588370  0.50000000  0.32433447
   0.57055004  0.00000000  0.67014215
   0.07411630  0.50000000  0.67566553
   0.91321219  0.00000000  0.07990955
   0.41746886  0.50000000  0.07428300
   0.08678781  0.00000000  0.92009045
   0.58253114  0.50000000  0.92571700
unknown system                          
           1
    12.918724    0.000000   -0.801842
     0.000000    3.156625    0.000000
    -0.137063    0.000000    9.838745
   Sr   Ir   O 
   2  10  20
Direct configuration=    11
   0.74587190  0.50000000  0.13859358
   0.25412810  0.50000000  0.86140642
   0.00000000  0.50000000 -0.00000000
   0.50000000  0.00000000 -0.00000000
   0.00251138  0.00000000  0.26695478
   0.50205323  0.50000000  0.26434013
  -0.00251138 -0.00000000  0.73304522
   0.49794677  0.50000000  0.73565987
   0.34181568  0.00000000  0.48025346
   0.84022389  0.50000000  0.47858251
   0.65818432 -0.00000000  0.51974654
   0.15977611  0.50000000  0.52141749
   0.58666931  0.00000000  0.18893834
   0.07568220  0.50000000  0.19059252
   0.41333069 -0.00000000  0.81106166
   0.92431780  0.50000000  0.80940748
   0.09556777  0.00000000  0.42544593
   0.59459351  0.50000000  0.42512512
   0.90443223 -0.00000000  0.57455407
   0.40540649  0.50000000  0.57487488
   0.76814306  0.00000000  0.37149624
   0.27067187  0.50000000  0.38398807
   0.23185694  0.00000000  0.62850376
   0.72932813  0.50000000  0.61601193
   0.42930905 -0.00000000  0.33021132
   0.92582151  0.50000000  0.32481624
   0.57069095  0.00000000  0.66978868
   0.07417849  0.50000000  0.67518376
   0.91367835  0.00000000  0.08038845
   0.41781023  0.50000000  0.07484877
   0.08632165  0.00000000  0.91961155
   0.58218977  0.50000000  0.92515123
unknown system                          
           1
    12.898811    0.000000   -0.817754
     0.000000    3.155760    0.000000
    -0.148261    0.000000    9.850164
   Sr   Ir   O 
   2  10  20
Direct configuration=    12
   0.74581519  0.50000000  0.14272055
   0.25418481  0.50000000  0.85727945
   0.00000000  0.50000000 -0.00000000
   0.50000000  0.00000000 -0.00000000
   0.00463402  0.00000000  0.26459164
   0.50324289  0.50000000  0.26211963
  -0.00463402 -0.00000000  0.73540836
   0.49675711  0.50000000  0.73788037
   0.34074535  0.00000000  0.47866688
   0.83787378  0.50000000  0.47774127
   0.65925465 -0.00000000  0.52133312
   0.16212622  0.50000000  0.52225873
   0.58898551  0.00000000  0.18565891
   0.07783758  0.50000000  0.18851602
   0.41101449 -0.00000000  0.81434109
   0.92216242  0.50000000  0.81148398
   0.09675127  0.00000000  0.42900681
   0.59500547  0.50000000  0.42709906
   0.90324873 -0.00000000  0.57099319
   0.40499453  0.50000000  0.57290094
   0.76770724  0.00000000  0.36767953
   0.27025656  0.50000000  0.38143925
   0.23229276  0.00000000  0.63232047
   0.72974344  0.50000000  0.61856075
   0.42946457  0.00000000  0.32849625
   0.92497044  0.50000000  0.32394012
   0.57053543 -0.00000000  0.67150375
   0.07502956  0.50000000  0.67605988
   0.91206070  0.00000000  0.07826999
   0.41645364  0.50000000  0.07330708
   0.08793930  0.00000000  0.92173001
   0.58354636  0.50000000  0.92669292
unknown system                          
           1
    12.844901    0.000000   -0.814042
     0.000000    3.145711    0.000000
    -0.150006    0.000000    9.768162
   Sr   Ir   O 
   2  10  20
Direct configuration=    13
   0.74579780  0.50000000  0.14423249
   0.25420220  0.50000000  0.85576751
   0.00000000  0.50000000 -0.00000000
   0.50000000  0.00000000 -0.00000000
   0.00541532  0.00000000  0.26372954
   0.50368002  0.50000000  0.26130817
  -0.00541532 -0.00000000  0.73627046
   0.49631998  0.50000000  0.73869183
   0.34034901  0.00000000  0.47808372
   0.83700580  0.50000000  0.47742896
   0.65965099 -0.00000000  0.52191628
   0.16299420  0.50000000  0.52257104
   0.58983745  0.00000000  0.18446144
   0.07863120  0.50000000  0.18775899
   0.41016255 -0.00000000  0.81553856
   0.92136880  0.50000000  0.81224101
   0.09719106  0.00000000  0.43031350
   0.59515919  0.50000000  0.42782298
   0.90280894 -0.00000000  0.56968650
   0.40484081  0.50000000  0.57217702
   0.76754315  0.00000000  0.36628041
   0.27010112  0.50000000  0.38050470
   0.23245685  0.00000000  0.63371959
   0.72989888  0.50000000  0.61949530
   0.42952050  0.00000000  0.32786815
   0.92465563  0.50000000  0.32361765
   0.57047950 -0.00000000  0.67213185
   0.07534437  0.50000000  0.67638235
   0.91146193  0.00000000  0.07749101
   0.41595170  0.50000000  0.07273987
   0.08853807  0.00000000  0.92250899
   0.58404830  0.50000000  0.92726013
unknown system                          
           1
    12.850750    0.000000   -0.814445
     0.000000    3.146802    0.000000
    -0.149816    0.000000    9.777059
   Sr   Ir   O 
   2  10  20
Direct configuration=    14
   0.74629487  0.50000000  0.14768629
   0.25370513  0.50000000  0.85231371
   0.00000000  0.50000000 -0.00000000
   0.50000000  0.00000000 -0.00000000
   0.00663114  0.00000000  0.26412123
   0.50413400  0.50000000  0.25986620
  -0.00663114 -0.00000000  0.73587877
   0.49586600  0.50000000  0.74013380
   0.34089637  0.00000000  0.47680158
   0.83678300  0.50000000  0.47635379
   0.65910363 -0.00000000  0.52319842
   0.16321700  0.50000000  0.52364621
   0.59085287  0.00000000  0.18079605
   0.08059773  0.50000000  0.18448910
   0.40914713 -0.00000000  0.81920395
   0.91940227  0.50000000  0.81551090
   0.09734134  0.00000000  0.43096385
   0.59512229  0.50000000  0.42842722
   0.90265866 -0.00000000  0.56903615
   0.40487771  0.50000000  0.57157278
   0.76519494  0.00000000  0.36398571
   0.26812110  0.50000000  0.37780652
   0.23480506  0.00000000  0.63601429
   0.73187890  0.50000000  0.62219348
   0.42904486  0.00000000  0.32660885
   0.92418412  0.50000000  0.32286500
   0.57095514 -0.00000000  0.67339115
   0.07581588  0.50000000  0.67713500
   0.91139040  0.00000000  0.07631509
   0.41561129  0.50000000  0.07217382
   0.08860960  0.00000000  0.92368491
   0.58438871  0.50000000  0.92782618
unknown system                          
           1
    12.905041    0.000000   -0.777675
     0.000000    3.155189    0.000000
    -0.122951    0.000000    9.769534
   Sr   Ir   O 
   2  10  20
Direct configuration=    15
   0.74624063  0.50000000  0.14730842
   0.25375937  0.50000000  0.85269158
   0.00000000  0.50000000 -0.00000000
   0.50000000  0.00000000 -0.00000000
   0.00649866  0.00000000  0.26407838
   0.50408458  0.50000000  0.26002397
  -0.00649866 -0.00000000  0.73592162
   0.49591542  0.50000000  0.73997603
   0.34083677  0.00000000  0.47694186
   0.83680730  0.50000000  0.47647143
   0.65916323 -0.00000000  0.52305814
   0.16319270  0.50000000  0.52352857
   0.59074233  0.00000000  0.18119708
   0.08038356  0.50000000  0.18484686
   0.40925767 -0.00000000  0.81880292
   0.91961644  0.50000000  0.81515314
   0.09732495  0.00000000  0.43089270
   0.59512629  0.50000000  0.42836111
   0.90267505 -0.00000000  0.56910730
   0.40487371  0.50000000  0.57163889
   0.76545084  0.00000000  0.36423676
   0.26833690  0.50000000  0.37810171
   0.23454916  0.00000000  0.63576324
   0.73166310  0.50000000  0.62189829
   0.42909671  0.00000000  0.32674662
   0.92423551  0.50000000  0.32294734
   0.57090329 -0.00000000  0.67325338
   0.07576449  0.50000000  0.67705266
   0.91139822  0.00000000  0.07644374
   0.41564839  0.50000000  0.07223575
   0.08860178  0.00000000  0.92355626
   0.58435161  0.50000000  0.92776425
unknown system                          
           1
    12.901490    0.000000   -0.780080
     0.000000    3.154640    0.000000
    -0.124708    0.000000    9.770027
   Sr   Ir   O 
   2  10  20
Direct configuration=    16
   0.74718487  0.50000000  0.14947501
   0.25281513  0.50000000  0.85052499
   0.00000000  0.50000000 -0.00000000
   0.50000000  0.00000000 -0.00000000
   0.00702945  0.00000000  0.26348877
   0.50421157  0.50000000  0.25940137
  -0.00702945 -0.00000000  0.73651123
   0.49578843  0.50000000  0.74059863
   0.34053200  0.00000000  0.47562073
   0.83692222  0.50000000  0.47600141
   0.65946800 -0.00000000  0.52437927
   0.16307778  0.50000000  0.52399859
   0.59145166  0.00000000  0.17954418
   0.08219872  0.50000000  0.18360315
   0.40854834 -0.00000000  0.82045582
   0.91780128  0.50000000  0.81639685
   0.09710257  0.00000000  0.43062593
   0.59442274  0.50000000  0.42787028
   0.90289743  0.00000000  0.56937407
   0.40557726  0.50000000  0.57212972
   0.76293256  0.00000000  0.36337903
   0.26674218  0.50000000  0.37613264
   0.23706744  0.00000000  0.63662097
   0.73325782  0.50000000  0.62386736
   0.42898981  0.00000000  0.32480022
   0.92460016  0.50000000  0.32155707
   0.57101019 -0.00000000  0.67519978
   0.07539984  0.50000000  0.67844293
   0.91192825  0.00000000  0.07621889
   0.41524959  0.50000000  0.07179491
   0.08807175  0.00000000  0.92378111
   0.58475041  0.50000000  0.92820509
unknown system                          
           1
    12.951587    0.000000   -0.744151
     0.000000    3.138686    0.000000
    -0.099965    0.000000    9.737263
   Sr   Ir   O 
   2  10  20
Direct configuration=    17
   0.74712366  0.50000000  0.14933345
   0.25287634  0.50000000  0.85066655
   0.00000000  0.50000000 -0.00000000
   0.50000000  0.00000000 -0.00000000
   0.00699480  0.00000000  0.26352750
   0.50420321  0.50000000  0.25944216
  -0.00699480 -0.00000000  0.73647250
   0.49579679  0.50000000  0.74055784
   0.34055167  0.00000000  0.47570712
   0.83691467  0.50000000  0.47603221
   0.65944833 -0.00000000  0.52429288
   0.16308533  0.50000000  0.52396779
   0.59140523  0.00000000  0.17965256
   0.08208031  0.50000000  0.18368505
   0.40859477 -0.00000000  0.82034744
   0.91791969  0.50000000  0.81631495
   0.09711702  0.00000000  0.43064333
   0.59446850  0.50000000  0.42790222
   0.90288298 -0.00000000  0.56935667
   0.40553150  0.50000000  0.57209778
   0.76309649  0.00000000  0.36343450
   0.26684579  0.50000000  0.37626110
   0.23690351  0.00000000  0.63656550
   0.73315421  0.50000000  0.62373890
   0.42899651  0.00000000  0.32492760
   0.92457622  0.50000000  0.32164817
   0.57100349 -0.00000000  0.67507240
   0.07542378  0.50000000  0.67835183
   0.91189370  0.00000000  0.07623375
   0.41527551  0.50000000  0.07182366
   0.08810630  0.00000000  0.92376625
   0.58472449  0.50000000  0.92817634
unknown system                          
           1
    12.947790    0.000000   -0.746874
     0.000000    3.139895    0.000000
    -0.101841    0.000000    9.739746
   Sr   Ir   O 
   2  10  20
Direct configuration=    18
   0.74837723  0.50000000  0.15104089
   0.25162277  0.50000000  0.84895911
   0.00000000  0.50000000 -0.00000000
   0.50000000  0.00000000 -0.00000000
   0.00787839  0.00000000  0.26173601
   0.50445327  0.50000000  0.25830470
  -0.00787839  0.00000000  0.73826399
   0.49554673  0.50000000  0.74169530
   0.34031734  0.00000000  0.47451737
   0.83700356  0.50000000  0.47607022
   0.65968266 -0.00000000  0.52548263
   0.16299644  0.50000000  0.52392978
   0.59178918  0.00000000  0.17910615
   0.08347942  0.50000000  0.18362860
   0.40821082 -0.00000000  0.82089385
   0.91652058  0.50000000  0.81637140
   0.09687713  0.00000000  0.43049664
   0.59419937  0.50000000  0.42813320
   0.90312287 -0.00000000  0.56950336
   0.40580063  0.50000000  0.57186680
   0.76138881 -0.00000000  0.36405948
   0.26608692  0.50000000  0.37571197
   0.23861119  0.00000000  0.63594052
   0.73391308  0.50000000  0.62428803
   0.42894902  0.00000000  0.32279643
   0.92526212  0.50000000  0.32000550
   0.57105098 -0.00000000  0.67720357
   0.07473788  0.50000000  0.67999450
   0.91280253  0.00000000  0.07669868
   0.41518772  0.50000000  0.07142221
   0.08719747  0.00000000  0.92330132
   0.58481228  0.50000000  0.92857779
unknown system                          
           1
    13.007987    0.000000   -0.751120
     0.000000    3.139758    0.000000
    -0.106873    0.000000    9.716091
   Sr   Ir   O 
   2  10  20
Direct configuration=    19
   0.74828283  0.50000000  0.15091143
   0.25171717  0.50000000  0.84908857
   0.00000000  0.50000000 -0.00000000
   0.50000000  0.00000000 -0.00000000
   0.00781142  0.00000000  0.26187250
   0.50443423  0.50000000  0.25839127
  -0.00781142  0.00000000  0.73812750
   0.49556577  0.50000000  0.74160873
   0.34033486  0.00000000  0.47460777
   0.83699685  0.50000000  0.47606736
   0.65966514 -0.00000000  0.52539223
   0.16300315  0.50000000  0.52393264
   0.59176011  0.00000000  0.17914782
   0.08337377  0.50000000  0.18363332
   0.40823989 -0.00000000  0.82085218
   0.91662623  0.50000000  0.81636668
   0.09689522  0.00000000  0.43050772
   0.59421973  0.50000000  0.42811555
   0.90310478 -0.00000000  0.56949228
   0.40578027  0.50000000  0.57188445
   0.76151784 -0.00000000  0.36401144
   0.26614414  0.50000000  0.37575350
   0.23848216  0.00000000  0.63598856
   0.73385586  0.50000000  0.62424650
   0.42895231  0.00000000  0.32295847
   0.92521009  0.50000000  0.32013062
   0.57104769 -0.00000000  0.67704153
   0.07478991  0.50000000  0.67986938
   0.91273398  0.00000000  0.07666360
   0.41519430  0.50000000  0.07145271
   0.08726602  0.00000000  0.92333640
   0.58480570  0.50000000  0.92854729
unknown system                          
           1
    13.049890    0.000000   -0.754076
     0.000000    3.139663    0.000000
    -0.110375    0.000000    9.699625
   Sr   Ir   O 
   2  10  20
Direct configuration=    20
   0.74943385  0.50000000  0.15191180
   0.25056615  0.50000000  0.84808820
   0.00000000  0.50000000 -0.00000000
   0.50000000  0.00000000 -0.00000000
   0.00883089  0.00000000  0.26138778
   0.50505738  0.50000000  0.25767856
  -0.00883089  0.00000000  0.73861222
   0.49494262  0.50000000  0.74232144
   0.34089154  0.00000000  0.47388451
   0.83742018  0.50000000  0.47598637
   0.65910846  0.00000000  0.52611549
   0.16257982  0.50000000  0.52401363
   0.59220730  0.00000000  0.17907658
   0.08478881  0.50000000  0.18343690
   0.40779270 -0.00000000  0.82092342
   0.91521119  0.50000000  0.81656310
   0.09639920  0.00000000  0.43002594
   0.59415393  0.50000000  0.42856646
   0.90360080 -0.00000000  0.56997406
   0.40584607  0.50000000  0.57143354
   0.76132794 -0.00000000  0.36512300
   0.26624656  0.50000000  0.37587870
   0.23867206  0.00000000  0.63487700
   0.73375344  0.50000000  0.62412130
   0.42858203  0.00000000  0.32170653
   0.92540638  0.50000000  0.31910902
   0.57141797 -0.00000000  0.67829347
   0.07459362  0.50000000  0.68089098
   0.91304965  0.00000000  0.07731752
   0.41505815  0.50000000  0.07123460
   0.08695035  0.00000000  0.92268248
   0.58494185  0.50000000  0.92876540
unknown system                          
           1
    13.078139    0.000000   -0.751138
     0.000000    3.137734    0.000000
    -0.109982    0.000000    9.672774
   Sr   Ir   O 
   2  10  20
Direct configuration=    21
   0.75023165  0.50000000  0.15260993
   0.24976835  0.50000000  0.84739007
   0.00000000  0.50000000 -0.00000000
   0.50000000  0.00000000 -0.00000000
   0.00953712  0.00000000  0.26104959
   0.50548894  0.50000000  0.25718126
  -0.00953712  0.00000000  0.73895041
   0.49451106  0.50000000  0.74281874
   0.34127704  0.00000000  0.47337984
   0.83771348  0.50000000  0.47592988
   0.65872296  0.00000000  0.52662016
   0.16228652  0.50000000  0.52407012
   0.59251713  0.00000000  0.17902689
   0.08576920  0.50000000  0.18329992
   0.40748287 -0.00000000  0.82097311
   0.91423080  0.50000000  0.81670008
   0.09605539  0.00000000  0.42968971
   0.59410848  0.50000000  0.42888111
   0.90394461 -0.00000000  0.57031029
   0.40589152  0.50000000  0.57111889
   0.76119668 -0.00000000  0.36589865
   0.26631757  0.50000000  0.37596608
   0.23880332  0.00000000  0.63410135
   0.73368243  0.50000000  0.62403392
   0.42832512  0.00000000  0.32083290