       N       E                     dE             d eps       ncg     rms          rms(c)
DAV:   1     0.231121498951E+04    0.23112E+04   -0.10527E+05 80640   0.127E+03
DAV:   2     0.315752625646E+02   -0.22796E+04   -0.21487E+04 82616   0.402E+02
DAV:   3    -0.247800091425E+03   -0.27938E+03   -0.26789E+03102992   0.144E+02
DAV:   4    -0.262883524000E+03   -0.15083E+02   -0.14757E+02110504   0.325E+01
DAV:   5    -0.263710011972E+03   -0.82649E+00   -0.82443E+00142376   0.618E+00    0.998E+01
RMM:   6    -0.231160614420E+03    0.32549E+02   -0.20884E+02 83744   0.317E+01    0.603E+01
RMM:   7    -0.227833885899E+03    0.33267E+01   -0.17467E+01 83854   0.119E+01    0.283E+01
RMM:   8    -0.227668615545E+03    0.16527E+00   -0.26479E+00104944   0.406E+00    0.590E+00
RMM:   9    -0.227637233805E+03    0.31382E-01   -0.72666E-01124641   0.171E+00    0.243E+00
RMM:  10    -0.227688070960E+03   -0.50837E-01   -0.19831E-01130039   0.805E-01    0.150E+00
RMM:  11    -0.227723823162E+03   -0.35752E-01   -0.51068E-02119221   0.510E-01    0.702E-01
RMM:  12    -0.227735887961E+03   -0.12065E-01   -0.21408E-02124143   0.305E-01    0.385E-01
RMM:  13    -0.227737761871E+03   -0.18739E-02   -0.70870E-03137224   0.149E-01    0.290E-01
RMM:  14    -0.227739718985E+03   -0.19571E-02   -0.33331E-03132433   0.101E-01    0.195E-01
RMM:  15    -0.227741390277E+03   -0.16713E-02   -0.22523E-03122197   0.959E-02    0.850E-02
RMM:  16    -0.227741698577E+03   -0.30830E-03   -0.85091E-04133712   0.529E-02    0.423E-02
RMM:  17    -0.227741767208E+03   -0.68631E-04   -0.39004E-04141239   0.297E-02    0.223E-02
RMM:  18    -0.227741794866E+03   -0.27658E-04   -0.15301E-04137875   0.178E-02    0.969E-03
RMM:  19    -0.227741804639E+03   -0.97733E-05   -0.65808E-05138436   0.110E-02    0.521E-03
RMM:  20    -0.227744252045E+03   -0.24474E-02   -0.24465E-02136821   0.645E-03    0.404E-03
RMM:  21    -0.227741787736E+03    0.24643E-02   -0.57159E-03117021   0.642E-03    0.340E-03
RMM:  22    -0.227734248949E+03    0.75388E-02    0.75334E-02110711   0.304E-03    0.248E+00
RMM:  23    -0.227684875947E+03    0.49373E-01   -0.99180E-05114046   0.490E-03    0.290E-02
RMM:  24    -0.227684870942E+03    0.50045E-05   -0.39981E-05109557   0.892E-03    0.143E-02
RMM:  25    -0.227684871961E+03   -0.10186E-05   -0.18404E-05110131   0.608E-03    0.775E-03
RMM:  26    -0.227684871792E+03    0.16915E-06   -0.72306E-06115398   0.334E-03    0.453E-03
RMM:  27    -0.227684871446E+03    0.34544E-06   -0.24659E-06 88568   0.181E-03    0.278E-03
RMM:  28    -0.227684871547E+03   -0.10075E-06   -0.90719E-07 63896   0.982E-04    0.224E-03
RMM:  29    -0.227684871574E+03   -0.26543E-07   -0.44025E-07 61420   0.726E-04
   1 F= -.22768487E+03 E0= -.22768487E+03  d E =0.000000E+00  mag=    -0.0010
