unknown system                          
           1
    12.608272    0.000000   -0.378228
     0.000000    3.183734    0.000000
     0.233704    0.000000   10.106268
   Sr   Ir   O 
   4  10  20
Direct configuration=     1
   0.26564076  0.00000000  0.19044142
   0.76564076  0.50000000  0.19044142
   0.73435924  0.00000000  0.80955858
   0.23435924  0.50000000  0.80955858
   0.00000000  0.50000000  0.00000000
   0.50000000  0.00000000  0.00000000
   0.01965235  0.00000000  0.25684755
   0.51965235  0.50000000  0.25684755
   0.98034765  0.00000000  0.74315245
   0.48034765  0.50000000  0.74315245
   0.34653454  0.00000000  0.47931136
   0.84653454  0.50000000  0.47931136
   0.65346546  0.00000000  0.52068864
   0.15346546  0.50000000  0.52068864
   0.60147906  0.00000000  0.16417529
   0.10147906  0.50000000  0.16417529
   0.39852094  0.00000000  0.83582471
   0.89852094  0.50000000  0.83582471
   0.09744123  0.00000000  0.42515495
   0.59744123  0.50000000  0.42515495
   0.90255877  0.00000000  0.57484505
   0.40255877  0.50000000  0.57484505
   0.77335049  0.00000000  0.37827902
   0.27335049  0.50000000  0.37827902
   0.22664951  0.00000000  0.62172098
   0.72664951  0.50000000  0.62172098
   0.43632765  0.00000000  0.31915699
   0.93632765  0.50000000  0.31915699
   0.56367235  0.00000000  0.68084301
   0.06367235  0.50000000  0.68084301
   0.91700302  0.00000000  0.08552416
   0.41700302  0.50000000  0.08552416
   0.08299698  0.00000000  0.91447584
   0.58299698  0.50000000  0.91447584
