   28   28  901    2
  0.1656787E+02  0.5367382E-09  0.5787823E-09  0.1493354E-08  0.5000000E-15
  1.000000000000000E-004
  CAR 
 SrIr2O4 prototype                       
    208     20    136
 
  0.3742002E-15  0.3742002E-15  0.1262379E-14  0.3125000E-01
    1      -30.961378    -30.961378   1.000000   1.000000
    2      -30.844447    -30.844447   1.000000   1.000000
    3      -30.692726    -30.692726   1.000000   1.000000
    4      -30.673990    -30.673990   1.000000   1.000000
    5      -17.266371    -17.266371   1.000000   1.000000
    6      -16.841850    -16.841850   1.000000   1.000000
    7      -16.771898    -16.771898   1.000000   1.000000
    8      -16.569885    -16.569885   1.000000   1.000000
    9      -16.466358    -16.466358   1.000000   1.000000
   10      -16.415655    -16.415655   1.000000   1.000000
   11      -16.270736    -16.270736   1.000000   1.000000
   12      -16.165418    -16.165418   1.000000   1.000000
   13      -16.150115    -16.150115   1.000000   1.000000
   14      -16.085489    -16.085489   1.000000   1.000000
   15      -16.032986    -16.032986   1.000000   1.000000
   16      -15.892396    -15.892396   1.000000   1.000000
   17      -15.835036    -15.835036   1.000000   1.000000
   18      -15.515720    -15.515720   1.000000   1.000000
   19      -15.285736    -15.285736   1.000000   1.000000
   20      -15.218712    -15.218712   1.000000   1.000000
   21      -13.210515    -13.210515   1.000000   1.000000
   22      -13.119378    -13.119378   1.000000   1.000000
   23      -12.999173    -12.999173   1.000000   1.000000
   24      -12.962508    -12.962508   1.000000   1.000000
   25      -12.903466    -12.903466   1.000000   1.000000
   26      -12.864846    -12.864846   1.000000   1.000000
   27      -12.833697    -12.833697   1.000000   1.000000
   28      -12.786239    -12.786239   1.000000   1.000000
   29      -12.719641    -12.719641   1.000000   1.000000
   30      -12.561666    -12.561666   1.000000   1.000000
   31      -12.490771    -12.490771   1.000000   1.000000
   32      -12.375846    -12.375846   1.000000   1.000000
   33       -6.161299     -6.161299   1.000000   1.000000
   34       -5.582543     -5.582543   1.000000   1.000000
   35       -5.191487     -5.191487   1.000000   1.000000
   36       -4.913684     -4.913684   1.000000   1.000000
   37       -4.384863     -4.384863   1.000000   1.000000
   38       -4.352247     -4.352247   1.000000   1.000000
   39       -4.201819     -4.201819   1.000000   1.000000
   40       -4.108534     -4.108534   1.000000   1.000000
   41       -4.050277     -4.050277   1.000000   1.000000
   42       -3.908700     -3.908700   1.000000   1.000000
   43       -3.793194     -3.793194   1.000000   1.000000
   44       -3.458517     -3.458517   1.000000   1.000000
   45       -3.446969     -3.446969   1.000000   1.000000
   46       -3.201966     -3.201966   1.000000   1.000000
   47       -3.175257     -3.175257   1.000000   1.000000
   48       -3.074258     -3.074258   1.000000   1.000000
   49       -3.026105     -3.026105   1.000000   1.000000
   50       -2.968179     -2.968179   1.000000   1.000000
   51       -2.908468     -2.908468   1.000000   1.000000
   52       -2.666582     -2.666582   1.000000   1.000000
   53       -2.597926     -2.597926   1.000000   1.000000
   54       -2.480144     -2.480144   1.000000   1.000000
   55       -2.424001     -2.424001   1.000000   1.000000
   56       -2.391497     -2.391497   1.000000   1.000000
   57       -2.211191     -2.211191   1.000000   1.000000
   58       -2.200221     -2.200221   1.000000   1.000000
   59       -2.069642     -2.069642   1.000000   1.000000
   60       -2.028401     -2.028401   1.000000   1.000000
   61       -1.943563     -1.943563   1.000000   1.000000
   62       -1.811787     -1.811787   1.000000   1.000000
   63       -1.777316     -1.777316   1.000000   1.000000
   64       -1.597010     -1.597010   1.000000   1.000000
   65       -1.534681     -1.534681   1.000000   1.000000
   66       -1.423212     -1.423212   1.000000   1.000000
   67       -1.279735     -1.279735   1.000000   1.000000
   68       -1.138894     -1.138894   1.000000   1.000000
   69       -1.090766     -1.090766   1.000000   1.000000
   70       -0.990311     -0.990311   1.000000   1.000000
   71       -0.807644     -0.807644   1.000000   1.000000
   72       -0.715046     -0.715046   1.000000   1.000000
   73       -0.704457     -0.704457   1.000000   1.000000
   74       -0.491857     -0.491857   1.000000   1.000000
   75       -0.336957     -0.336957   1.000000   1.000000
   76       -0.283383     -0.283383   1.000000   1.000000
   77       -0.107719     -0.107719   1.000000   1.000000
   78       -0.012655     -0.012655   1.000000   1.000000
   79        0.432845      0.432845   1.000000   1.000000
   80        0.513592      0.513592   1.000000   1.000000
   81        0.912177      0.912177   1.000000   1.000000
   82        1.028733      1.028733   1.000000   1.000000
   83        1.046737      1.046737   1.000000   1.000000
   84        1.241338      1.241338   1.000000   1.000000
   85        1.345026      1.345026   1.000000   1.000000
   86        1.451992      1.451992   1.000000   1.000000
   87        1.494861      1.494861   1.000000   1.000000
   88        1.589039      1.589039   1.000000   1.000000
   89        1.620059      1.620059   1.000000   1.000000
   90        1.704178      1.704178   1.000000   1.000000
   91        1.850930      1.850930   1.000000   1.000000
   92        1.908528      1.908528   1.000000   1.000000
   93        1.993646      1.993646   1.000000   1.000000
   94        2.162922      2.162922   1.000000   1.000000
   95        2.223494      2.223494   1.000000   1.000000
   96        2.306172      2.306172   1.000000   1.000000
   97        2.365545      2.365545   1.000000   1.000000
   98        2.579907      2.579907   0.999970   0.999970
   99        2.613744      2.613744   0.999922   0.999922
  100        2.701856      2.701856   0.999366   0.999366
  101        2.845529      2.845529   0.995275   0.995275
  102        2.952552      2.952552   1.006006   1.006006
  103        2.970714      2.970714   1.012112   1.012112
  104        3.070049      3.070049   1.051354   1.051354
  105        3.257148      3.257148   0.554663   0.554663
  106        3.389767      3.389767   0.008143   0.008143
  107        3.491128      3.491128  -0.044727  -0.044727
  108        3.781918      3.781918   0.001652   0.001652
  109        3.809290      3.809290   0.001017   0.001017
  110        3.969812      3.969812   0.000020   0.000020
  111        4.041297      4.041297   0.000002   0.000002
  112        4.098280      4.098280   0.000000   0.000000
  113        4.696252      4.696252   0.000000   0.000000
  114        4.925706      4.925706   0.000000   0.000000
  115        5.007142      5.007142   0.000000   0.000000
  116        5.110692      5.110692   0.000000   0.000000
  117        5.291261      5.291261   0.000000   0.000000
  118        5.655776      5.655776   0.000000   0.000000
  119        5.727869      5.727869   0.000000   0.000000
  120        6.093873      6.093873   0.000000   0.000000
  121        6.360977      6.360977   0.000000   0.000000
  122        7.026546      7.026546   0.000000   0.000000
  123        7.186159      7.186159   0.000000   0.000000
  124        7.323290      7.323290   0.000000   0.000000
  125        7.710926      7.710926   0.000000   0.000000
  126        7.903189      7.903189   0.000000   0.000000
  127        8.044709      8.044709   0.000000   0.000000
  128        8.194588      8.194588   0.000000   0.000000
  129        8.640537      8.640537   0.000000   0.000000
  130        8.660441      8.660441   0.000000   0.000000
  131        8.739608      8.739608   0.000000   0.000000
  132        8.981612      8.981612   0.000000   0.000000
  133        9.195610      9.195610   0.000000   0.000000
  134        9.243471      9.243471   0.000000   0.000000
  135        9.391823      9.391823   0.000000   0.000000
  136        9.644114      9.644114   0.000000   0.000000
 
  0.2500000E+00  0.3741734E-15  0.1262445E-14  0.6250000E-01
    1      -30.959796    -30.959796   1.000000   1.000000
    2      -30.841958    -30.841958   1.000000   1.000000
    3      -30.693668    -30.693668   1.000000   1.000000
    4      -30.674250    -30.674250   1.000000   1.000000
    5      -17.268578    -17.268578   1.000000   1.000000
    6      -16.867947    -16.867947   1.000000   1.000000
    7      -16.799766    -16.799766   1.000000   1.000000
    8      -16.614087    -16.614087   1.000000   1.000000
    9      -16.521364    -16.521364   1.000000   1.000000
   10      -16.473479    -16.473479   1.000000   1.000000
   11      -16.329060    -16.329060   1.000000   1.000000
   12      -16.184320    -16.184320   1.000000   1.000000
   13      -16.170315    -16.170315   1.000000   1.000000
   14      -16.054031    -16.054031   1.000000   1.000000
   15      -16.037412    -16.037412   1.000000   1.000000
   16      -15.892647    -15.892647   1.000000   1.000000
   17      -15.768872    -15.768872   1.000000   1.000000
   18      -15.498011    -15.498011   1.000000   1.000000
   19      -15.330901    -15.330901   1.000000   1.000000
   20      -15.244950    -15.244950   1.000000   1.000000
   21      -13.099701    -13.099701   1.000000   1.000000
   22      -13.046797    -13.046797   1.000000   1.000000
   23      -12.977497    -12.977497   1.000000   1.000000
   24      -12.909163    -12.909163   1.000000   1.000000
   25      -12.837741    -12.837741   1.000000   1.000000
   26      -12.805251    -12.805251   1.000000   1.000000
   27      -12.750355    -12.750355   1.000000   1.000000
   28      -12.727423    -12.727423   1.000000   1.000000
   29      -12.668937    -12.668937   1.000000   1.000000
   30      -12.522188    -12.522188   1.000000   1.000000
   31      -12.464536    -12.464536   1.000000   1.000000
   32      -12.384771    -12.384771   1.000000   1.000000
   33       -6.169506     -6.169506   1.000000   1.000000
   34       -5.594241     -5.594241   1.000000   1.000000
   35       -5.200302     -5.200302   1.000000   1.000000
   36       -4.926213     -4.926213   1.000000   1.000000
   37       -4.472862     -4.472862   1.000000   1.000000
   38       -4.406200     -4.406200   1.000000   1.000000
   39       -4.317529     -4.317529   1.000000   1.000000
   40       -4.157135     -4.157135   1.000000   1.000000
   41       -4.141848     -4.141848   1.000000   1.000000
   42       -3.940408     -3.940408   1.000000   1.000000
   43       -3.821797     -3.821797   1.000000   1.000000
   44       -3.451435     -3.451435   1.000000   1.000000
   45       -3.416215     -3.416215   1.000000   1.000000
   46       -3.251167     -3.251167   1.000000   1.000000
   47       -3.146108     -3.146108   1.000000   1.000000
   48       -3.129139     -3.129139   1.000000   1.000000
   49       -3.093123     -3.093123   1.000000   1.000000
   50       -2.931355     -2.931355   1.000000   1.000000
   51       -2.875696     -2.875696   1.000000   1.000000
   52       -2.694701     -2.694701   1.000000   1.000000
   53       -2.656148     -2.656148   1.000000   1.000000
   54       -2.629950     -2.629950   1.000000   1.000000
   55       -2.543734     -2.543734   1.000000   1.000000
   56       -2.387130     -2.387130   1.000000   1.000000
   57       -2.346970     -2.346970   1.000000   1.000000
   58       -2.222704     -2.222704   1.000000   1.000000
   59       -2.165365     -2.165365   1.000000   1.000000
   60       -2.123642     -2.123642   1.000000   1.000000
   61       -1.989953     -1.989953   1.000000   1.000000
   62       -1.903028     -1.903028   1.000000   1.000000
   63       -1.759640     -1.759640   1.000000   1.000000
   64       -1.659178     -1.659178   1.000000   1.000000
   65       -1.591289     -1.591289   1.000000   1.000000
   66       -1.506230     -1.506230   1.000000   1.000000
   67       -1.369582     -1.369582   1.000000   1.000000
   68       -1.143368     -1.143368   1.000000   1.000000
   69       -1.093313     -1.093313   1.000000   1.000000
   70       -1.059851     -1.059851   1.000000   1.000000
   71       -0.949378     -0.949378   1.000000   1.000000
   72       -0.754238     -0.754238   1.000000   1.000000
   73       -0.581955     -0.581955   1.000000   1.000000
   74       -0.442799     -0.442799   1.000000   1.000000
   75       -0.241474     -0.241474   1.000000   1.000000
   76       -0.177842     -0.177842   1.000000   1.000000
   77       -0.105433     -0.105433   1.000000   1.000000
   78       -0.045604     -0.045604   1.000000   1.000000
   79        0.047377      0.047377   1.000000   1.000000
   80        0.364703      0.364703   1.000000   1.000000
   81        1.044534      1.044534   1.000000   1.000000
   82        1.097573      1.097573   1.000000   1.000000
   83        1.157072      1.157072   1.000000   1.000000
   84        1.262985      1.262985   1.000000   1.000000
   85        1.296411      1.296411   1.000000   1.000000
   86        1.517081      1.517081   1.000000   1.000000
   87        1.567185      1.567185   1.000000   1.000000
   88        1.785790      1.785790   1.000000   1.000000
   89        1.822828      1.822828   1.000000   1.000000
   90        2.018562      2.018562   1.000000   1.000000
   91        2.039759      2.039759   1.000000   1.000000
   92        2.112827      2.112827   1.000000   1.000000
   93        2.175800      2.175800   1.000000   1.000000
   94        2.245825      2.245825   1.000000   1.000000
   95        2.291344      2.291344   1.000000   1.000000
   96        2.493395      2.493395   0.999998   0.999998
   97        2.582604      2.582604   0.999967   0.999967
   98        2.651613      2.651613   0.999796   0.999796
   99        2.739051      2.739051   0.998702   0.998702
  100        2.826841      2.826841   0.995803   0.995803
  101        2.856378      2.856378   0.995101   0.995101
  102        2.964175      2.964175   1.009745   1.009745
  103        3.031043      3.031043   1.039374   1.039374
  104        3.175909      3.175909   0.913727   0.913727
  105        3.361936      3.361936   0.077521   0.077521
  106        3.492291      3.492291  -0.044281  -0.044281
  107        3.529497      3.529497  -0.027289  -0.027289
  108        3.763358      3.763358   0.002208   0.002208
  109        3.849343      3.849343   0.000449   0.000449
  110        4.004958      4.004958   0.000007   0.000007
  111        4.075995      4.075995   0.000001   0.000001
  112        4.104931      4.104931   0.000000   0.000000
  113        4.374403      4.374403   0.000000   0.000000
  114        4.547659      4.547659   0.000000   0.000000
  115        4.597566      4.597566   0.000000   0.000000
  116        4.852977      4.852977   0.000000   0.000000
  117        4.935218      4.935218   0.000000   0.000000
  118        5.402002      5.402002   0.000000   0.000000
  119        5.466525      5.466525   0.000000   0.000000
  120        5.880936      5.880936   0.000000   0.000000
  121        5.967851      5.967851   0.000000   0.000000
  122        7.328642      7.328642   0.000000   0.000000
  123        7.458273      7.458273   0.000000   0.000000
  124        7.569325      7.569325   0.000000   0.000000
  125        7.742417      7.742417   0.000000   0.000000
  126        7.987107      7.987107   0.000000   0.000000
  127        8.222509      8.222509   0.000000   0.000000
  128        8.377569      8.377569   0.000000   0.000000
  129        8.676987      8.676987   0.000000   0.000000
  130        8.751403      8.751403   0.000000   0.000000
  131        8.928687      8.928687   0.000000   0.000000
  132        9.069018      9.069018   0.000000   0.000000
  133        9.096841      9.096841   0.000000   0.000000
  134        9.408014      9.408014   0.000000   0.000000
  135        9.578870      9.578870   0.000000   0.000000
  136        9.622020      9.622020   0.000000   0.000000
 
  0.5000000E+00  0.3741480E-15  0.1262011E-14  0.3125000E-01
    1      -30.958208    -30.958208   1.000000   1.000000
    2      -30.839423    -30.839423   1.000000   1.000000
    3      -30.694665    -30.694665   1.000000   1.000000
    4      -30.674509    -30.674509   1.000000   1.000000
    5      -17.273702    -17.273702   1.000000   1.000000
    6      -16.905821    -16.905821   1.000000   1.000000
    7      -16.828193    -16.828193   1.000000   1.000000
    8      -16.666392    -16.666392   1.000000   1.000000
    9      -16.576938    -16.576938   1.000000   1.000000
   10      -16.494069    -16.494069   1.000000   1.000000
   11      -16.351931    -16.351931   1.000000   1.000000
   12      -16.233203    -16.233203   1.000000   1.000000
   13      -16.193089    -16.193089   1.000000   1.000000
   14      -16.056748    -16.056748   1.000000   1.000000
   15      -16.008121    -16.008121   1.000000   1.000000
   16      -15.888233    -15.888233   1.000000   1.000000
   17      -15.652158    -15.652158   1.000000   1.000000
   18      -15.507223    -15.507223   1.000000   1.000000
   19      -15.422792    -15.422792   1.000000   1.000000
   20      -15.251669    -15.251669   1.000000   1.000000
   21      -13.072476    -13.072476   1.000000   1.000000
   22      -13.033746    -13.033746   1.000000   1.000000
   23      -12.954320    -12.954320   1.000000   1.000000
   24      -12.840713    -12.840713   1.000000   1.000000
   25      -12.753046    -12.753046   1.000000   1.000000
   26      -12.724204    -12.724204   1.000000   1.000000
   27      -12.684447    -12.684447   1.000000   1.000000
   28      -12.656491    -12.656491   1.000000   1.000000
   29      -12.581253    -12.581253   1.000000   1.000000
   30      -12.471769    -12.471769   1.000000   1.000000
   31      -12.413139    -12.413139   1.000000   1.000000
   32      -12.379280    -12.379280   1.000000   1.000000
   33       -6.178035     -6.178035   1.000000   1.000000
   34       -5.606407     -5.606407   1.000000   1.000000
   35       -5.210255     -5.210255   1.000000   1.000000
   36       -4.940328     -4.940328   1.000000   1.000000
   37       -4.560961     -4.560961   1.000000   1.000000
   38       -4.498564     -4.498564   1.000000   1.000000
   39       -4.386339     -4.386339   1.000000   1.000000
   40       -4.230963     -4.230963   1.000000   1.000000
   41       -4.202748     -4.202748   1.000000   1.000000
   42       -3.973468     -3.973468   1.000000   1.000000
   43       -3.842223     -3.842223   1.000000   1.000000
   44       -3.439514     -3.439514   1.000000   1.000000
   45       -3.374637     -3.374637   1.000000   1.000000
   46       -3.345458     -3.345458   1.000000   1.000000
   47       -3.258289     -3.258289   1.000000   1.000000
   48       -3.148587     -3.148587   1.000000   1.000000
   49       -3.030528     -3.030528   1.000000   1.000000
   50       -2.934994     -2.934994   1.000000   1.000000
   51       -2.835817     -2.835817   1.000000   1.000000
   52       -2.798319     -2.798319   1.000000   1.000000
   53       -2.706611     -2.706611   1.000000   1.000000
   54       -2.646593     -2.646593   1.000000   1.000000
   55       -2.612752     -2.612752   1.000000   1.000000
   56       -2.591984     -2.591984   1.000000   1.000000
   57       -2.457060     -2.457060   1.000000   1.000000
   58       -2.426777     -2.426777   1.000000   1.000000
   59       -2.314457     -2.314457   1.000000   1.000000
   60       -2.126690     -2.126690   1.000000   1.000000
   61       -2.000104     -2.000104   1.000000   1.000000
   62       -1.956554     -1.956554   1.000000   1.000000
   63       -1.815864     -1.815864   1.000000   1.000000
   64       -1.661259     -1.661259   1.000000   1.000000
   65       -1.584106     -1.584106   1.000000   1.000000
   66       -1.388195     -1.388195   1.000000   1.000000
   67       -1.316232     -1.316232   1.000000   1.000000
   68       -1.155985     -1.155985   1.000000   1.000000
   69       -1.098134     -1.098134   1.000000   1.000000
   70       -1.007013     -1.007013   1.000000   1.000000
   71       -0.981627     -0.981627   1.000000   1.000000
   72       -0.821090     -0.821090   1.000000   1.000000
   73       -0.700929     -0.700929   1.000000   1.000000
   74       -0.669620     -0.669620   1.000000   1.000000
   75       -0.372244     -0.372244   1.000000   1.000000
   76       -0.208527     -0.208527   1.000000   1.000000
   77       -0.001129     -0.001129   1.000000   1.000000
   78        0.043055      0.043055   1.000000   1.000000
   79        0.060274      0.060274   1.000000   1.000000
   80        0.260653      0.260653   1.000000   1.000000
   81        0.953002      0.953002   1.000000   1.000000
   82        1.019763      1.019763   1.000000   1.000000
   83        1.267348      1.267348   1.000000   1.000000
   84        1.391549      1.391549   1.000000   1.000000
   85        1.464108      1.464108   1.000000   1.000000
   86        1.612955      1.612955   1.000000   1.000000
   87        1.708982      1.708982   1.000000   1.000000
   88        1.856440      1.856440   1.000000   1.000000
   89        1.982044      1.982044   1.000000   1.000000
   90        2.045735      2.045735   1.000000   1.000000
   91        2.180945      2.180945   1.000000   1.000000
   92        2.264482      2.264482   1.000000   1.000000
   93        2.346595      2.346595   1.000000   1.000000
   94        2.444967      2.444967   1.000000   1.000000
   95        2.573029      2.573029   0.999975   0.999975
   96        2.682101      2.682101   0.999585   0.999585
   97        2.775082      2.775082   0.997678   0.997678
   98        2.894281      2.894281   0.995986   0.995986
   99        2.933485      2.933485   1.001201   1.001201
  100        3.008094      3.008094   1.028526   1.028526
  101        3.091233      3.091233   1.049379   1.049379
  102        3.161649      3.161649   0.954569   0.954569
  103        3.225363      3.225363   0.715381   0.715381
  104        3.248119      3.248119   0.601789   0.601789
  105        3.513233      3.513233  -0.035089  -0.035089
  106        3.522960      3.522960  -0.030430  -0.030430
  107        3.575294      3.575294  -0.008237  -0.008237
  108        3.614685      3.614685   0.001192   0.001192
  109        3.709242      3.709242   0.004161   0.004161
  110        3.823437      3.823437   0.000773   0.000773
  111        3.880564      3.880564   0.000219   0.000219
  112        4.076683      4.076683   0.000001   0.000001
  113        4.117473      4.117473   0.000000   0.000000
  114        4.254302      4.254302   0.000000   0.000000
  115        4.349603      4.349603   0.000000   0.000000
  116        4.609459      4.609459   0.000000   0.000000
  117        4.709625      4.709625   0.000000   0.000000
  118        5.013523      5.013523   0.000000   0.000000
  119        5.145286      5.145286   0.000000   0.000000
  120        5.294198      5.294198   0.000000   0.000000
  121        6.103632      6.103632   0.000000   0.000000
  122        6.923034      6.923034   0.000000   0.000000
  123        7.772948      7.772948   0.000000   0.000000
  124        7.932983      7.932983   0.000000   0.000000
  125        8.217147      8.217147   0.000000   0.000000
  126        8.280552      8.280552   0.000000   0.000000
  127        8.361311      8.361311   0.000000   0.000000
  128        8.481327      8.481327   0.000000   0.000000
  129        8.574716      8.574716   0.000000   0.000000
  130        8.701136      8.701136   0.000000   0.000000
  131        8.753443      8.753443   0.000000   0.000000
  132        8.914209      8.914209   0.000000   0.000000
  133        9.233482      9.233482   0.000000   0.000000
  134        9.265202      9.265202   0.000000   0.000000
  135        9.441235      9.441235   0.000000   0.000000
  136        9.636532      9.636532   0.000000   0.000000
 
  0.3741895E-15  0.2500000E+00  0.1262445E-14  0.6250000E-01
    1      -30.960307    -30.960307   1.000000   1.000000
    2      -30.842550    -30.842550   1.000000   1.000000
    3      -30.694207    -30.694207   1.000000   1.000000
    4      -30.674734    -30.674734   1.000000   1.000000
    5      -17.265553    -17.265553   1.000000   1.000000
    6      -16.853476    -16.853476   1.000000   1.000000
    7      -16.785358    -16.785358   1.000000   1.000000
    8      -16.588150    -16.588150   1.000000   1.000000
    9      -16.487518    -16.487518   1.000000   1.000000
   10      -16.464945    -16.464945   1.000000   1.000000
   11      -16.295887    -16.295887   1.000000   1.000000
   12      -16.159788    -16.159788   1.000000   1.000000
   13      -16.151040    -16.151040   1.000000   1.000000
   14      -16.095811    -16.095811   1.000000   1.000000
   15      -16.009351    -16.009351   1.000000   1.000000
   16      -15.875998    -15.875998   1.000000   1.000000
   17      -15.748853    -15.748853   1.000000   1.000000
   18      -15.560558    -15.560558   1.000000   1.000000
   19      -15.331698    -15.331698   1.000000   1.000000
   20      -15.192010    -15.192010   1.000000   1.000000
   21      -13.190437    -13.190437   1.000000   1.000000
   22      -13.099001    -13.099001   1.000000   1.000000
   23      -12.980236    -12.980236   1.000000   1.000000
   24      -12.953357    -12.953357   1.000000   1.000000
   25      -12.891018    -12.891018   1.000000   1.000000
   26      -12.851815    -12.851815   1.000000   1.000000
   27      -12.825703    -12.825703   1.000000   1.000000
   28      -12.734474    -12.734474   1.000000   1.000000
   29      -12.662552    -12.662552   1.000000   1.000000
   30      -12.533239    -12.533239   1.000000   1.000000
   31      -12.496765    -12.496765   1.000000   1.000000
   32      -12.385004    -12.385004   1.000000   1.000000
   33       -6.163350     -6.163350   1.000000   1.000000
   34       -5.588098     -5.588098   1.000000   1.000000
   35       -5.194571     -5.194571   1.000000   1.000000
   36       -4.918750     -4.918750   1.000000   1.000000
   37       -4.393207     -4.393207   1.000000   1.000000
   38       -4.367933     -4.367933   1.000000   1.000000
   39       -4.242561     -4.242561   1.000000   1.000000
   40       -4.104057     -4.104057   1.000000   1.000000
   41       -4.062720     -4.062720   1.000000   1.000000
   42       -3.929577     -3.929577   1.000000   1.000000
   43       -3.861333     -3.861333   1.000000   1.000000
   44       -3.539095     -3.539095   1.000000   1.000000
   45       -3.473499     -3.473499   1.000000   1.000000
   46       -3.268358     -3.268358   1.000000   1.000000
   47       -3.159038     -3.159038   1.000000   1.000000
   48       -3.146266     -3.146266   1.000000   1.000000
   49       -3.060401     -3.060401   1.000000   1.000000
   50       -3.025824     -3.025824   1.000000   1.000000
   51       -2.893341     -2.893341   1.000000   1.000000
   52       -2.747366     -2.747366   1.000000   1.000000
   53       -2.633769     -2.633769   1.000000   1.000000
   54       -2.596340     -2.596340   1.000000   1.000000
   55       -2.459790     -2.459790   1.000000   1.000000
   56       -2.333226     -2.333226   1.000000   1.000000
   57       -2.283407     -2.283407   1.000000   1.000000
   58       -2.187870     -2.187870   1.000000   1.000000
   59       -2.093480     -2.093480   1.000000   1.000000
   60       -2.015146     -2.015146   1.000000   1.000000
   61       -1.958690     -1.958690   1.000000   1.000000
   62       -1.865791     -1.865791   1.000000   1.000000
   63       -1.729371     -1.729371   1.000000   1.000000
   64       -1.642000     -1.642000   1.000000   1.000000
   65       -1.522844     -1.522844   1.000000   1.000000
   66       -1.403265     -1.403265   1.000000   1.000000
   67       -1.311439     -1.311439   1.000000   1.000000
   68       -1.234276     -1.234276   1.000000   1.000000
   69       -1.124423     -1.124423   1.000000   1.000000
   70       -1.006121     -1.006121   1.000000   1.000000
   71       -0.778237     -0.778237   1.000000   1.000000
   72       -0.750497     -0.750497   1.000000   1.000000
   73       -0.626612     -0.626612   1.000000   1.000000
   74       -0.529131     -0.529131   1.000000   1.000000
   75       -0.369413     -0.369413   1.000000   1.000000
   76       -0.304505     -0.304505   1.000000   1.000000
   77       -0.092120     -0.092120   1.000000   1.000000
   78       -0.029672     -0.029672   1.000000   1.000000
   79        0.356470      0.356470   1.000000   1.000000
   80        0.466357      0.466357   1.000000   1.000000
   81        0.963705      0.963705   1.000000   1.000000
   82        0.984958      0.984958   1.000000   1.000000
   83        1.087663      1.087663   1.000000   1.000000
   84        1.318903      1.318903   1.000000   1.000000
   85        1.413028      1.413028   1.000000   1.000000
   86        1.497491      1.497491   1.000000   1.000000
   87        1.622669      1.622669   1.000000   1.000000
   88        1.727073      1.727073   1.000000   1.000000
   89        1.764298      1.764298   1.000000   1.000000
   90        1.891001      1.891001   1.000000   1.000000
   91        2.008760      2.008760   1.000000   1.000000
   92        2.030892      2.030892   1.000000   1.000000
   93        2.189205      2.189205   1.000000   1.000000
   94        2.238333      2.238333   1.000000   1.000000
   95        2.325729      2.325729   1.000000   1.000000
   96        2.464666      2.464666   0.999999   0.999999
   97        2.559497      2.559497   0.999983   0.999983
   98        2.667550      2.667550   0.999701   0.999701
   99        2.777285      2.777285   0.997604   0.997604
  100        2.877046      2.877046   0.995222   0.995222
  101        2.909992      2.909992   0.997409   0.997409