 running on   96 total cores
 distrk:  each k-point on   96 cores,    1 groups
 distr:  one band on   12 cores,    8 groups
 using from now: INCAR     
 vasp.5.4.1 24Jun15 (build Nov 16 2016 17:59:42) complex                        
  
 POSCAR found type information on POSCAR  Sr Ir O 
 POSCAR found :  3 types and      28 ions
 scaLAPACK will be used
 LDA part: xc-table for Pade appr. of Perdew
 POSCAR, INCAR and KPOINTS ok, starting setup
 FFT: planning ...
 WAVECAR not read
 entering main loop
       N       E                     dE             d eps       ncg     rms          rms(c)
DAV:   1     0.179222548876E+04    0.17922E+04   -0.86568E+04 10880   0.118E+03
DAV:   2     0.292543744666E+02   -0.17630E+04   -0.16566E+04 11200   0.369E+02
DAV:   3    -0.205569433984E+03   -0.23482E+03   -0.22480E+03 14744   0.135E+02
DAV:   4    -0.217438555304E+03   -0.11869E+02   -0.11715E+02 14752   0.305E+01
DAV:   5    -0.218169018557E+03   -0.73046E+00   -0.72925E+00 18704   0.563E+00    0.119E+02
RMM:   6    -0.231993156463E+03   -0.13824E+02   -0.31454E+02 11023   0.432E+01    0.202E+02
RMM:   7    -0.214693215562E+03    0.17300E+02   -0.19253E+01 12553   0.110E+01    0.181E+02
RMM:   8    -0.290574844247E+03   -0.75882E+02   -0.16202E+02 11235   0.264E+01    0.151E+02
RMM:   9    -0.243363607929E+03    0.47211E+02   -0.23267E+01 10962   0.162E+01    0.800E+01
RMM:  10    -0.189403809027E+03    0.53960E+02   -0.27958E+01 10901   0.128E+01    0.565E+01
RMM:  11    -0.183364611390E+03    0.60392E+01   -0.14058E+01 11042   0.919E+00    0.567E+01
RMM:  12    -0.180033206040E+03    0.33314E+01   -0.26283E+00 11984   0.367E+00    0.543E+01
RMM:  13    -0.177900143930E+03    0.21331E+01   -0.85242E-01 11429   0.217E+00    0.497E+01
RMM:  14    -0.176529366709E+03    0.13708E+01   -0.10647E+00 11172   0.247E+00    0.407E+01
RMM:  15    -0.177262143027E+03   -0.73278E+00   -0.62205E-01 10942   0.191E+00    0.394E+01
RMM:  16    -0.176530631742E+03    0.73151E+00   -0.10201E+00 10952   0.254E+00    0.235E+01
RMM:  17    -0.176670482106E+03   -0.13985E+00   -0.89024E-01 11171   0.234E+00    0.106E+01
RMM:  18    -0.176315267938E+03    0.35521E+00   -0.40930E-01 11238   0.150E+00    0.108E+01
RMM:  19    -0.176163313924E+03    0.15195E+00   -0.96685E-02 11175   0.748E-01    0.885E+00
RMM:  20    -0.176402643262E+03   -0.23933E+00   -0.12344E-01 11463   0.791E-01    0.699E+00
RMM:  21    -0.176109229446E+03    0.29341E+00   -0.41614E-02 10935   0.494E-01    0.516E+00
RMM:  22    -0.176086107615E+03    0.23122E-01   -0.21194E-02 11125   0.349E-01    0.410E+00
RMM:  23    -0.175965701714E+03    0.12041E+00   -0.29577E-02 11004   0.405E-01    0.348E+00
RMM:  24    -0.175977263526E+03   -0.11562E-01   -0.17265E-02 11399   0.282E-01    0.278E+00
RMM:  25    -0.175918405181E+03    0.58858E-01   -0.19709E-02 11002   0.347E-01    0.164E+00
RMM:  26    -0.175911366747E+03    0.70384E-02   -0.17658E-02 11279   0.287E-01    0.158E+00
RMM:  27    -0.175902029073E+03    0.93377E-02   -0.77079E-03 11455   0.231E-01    0.501E-01
RMM:  28    -0.175901988131E+03    0.40942E-04   -0.16874E-03 13252   0.783E-02    0.393E-01
RMM:  29    -0.175901797455E+03    0.19068E-03   -0.41789E-04 11888   0.479E-02    0.213E-01
RMM:  30    -0.175902034601E+03   -0.23715E-03   -0.11655E-04 11586   0.273E-02    0.269E-01
RMM:  31    -0.175901962601E+03    0.72001E-04   -0.15581E-04 11194   0.304E-02    0.874E-02
RMM:  32    -0.175902089270E+03   -0.12667E-03   -0.12015E-04 11464   0.264E-02    0.105E-01
RMM:  33    -0.175902186260E+03   -0.96990E-04   -0.10667E-04 10915   0.251E-02    0.649E-02
RMM:  34    -0.175902238568E+03   -0.52308E-04   -0.73239E-05 11048   0.214E-02    0.101E-01
RMM:  35    -0.175902269617E+03   -0.31048E-04   -0.30559E-05 11727   0.137E-02    0.129E-01
RMM:  36    -0.175902263864E+03    0.57531E-05   -0.42174E-05 10919   0.159E-02
   1 F= -.17590226E+03 E0= -.17590213E+03  d E =-.175902E+03  mag=     0.4226
 curvature:   0.00 expect dE= 0.000E+00 dE for cont linesearch  0.000E+00
 trial: gam= 0.00000 g(F)=  0.228E+00 g(S)=  0.207E+00 ort = 0.000E+00 (trialstep = 0.100E+01)
 search vector abs. value=  0.435E+00
 bond charge predicted
       N       E                     dE             d eps       ncg     rms          rms(c)
DAV:   1    -0.177317432915E+03   -0.14152E+01   -0.79883E+01 11824   0.268E+01    0.109E+01
RMM:   2    -0.176114284612E+03    0.12031E+01   -0.53964E+00 10880   0.651E+00    0.807E+00
RMM:   3    -0.176733097519E+03   -0.61881E+00   -0.94863E-01 10903   0.304E+00    0.118E+01
RMM:   4    -0.176095697766E+03    0.63740E+00   -0.42064E-01 10903   0.184E+00    0.593E+00
RMM:   5    -0.176191514973E+03   -0.95817E-01   -0.32604E-01 11048   0.149E+00    0.754E+00
RMM:   6    -0.175951890457E+03    0.23962E+00   -0.10629E-01 11113   0.847E-01    0.216E+00
RMM:   7    -0.175959689723E+03   -0.77993E-02   -0.58080E-02 11119   0.619E-01    0.309E+00
RMM:   8    -0.175920332191E+03    0.39358E-01   -0.19972E-02 11647   0.360E-01    0.974E-01
RMM:   9    -0.175918800205E+03    0.15320E-02   -0.36348E-03 13794   0.159E-01    0.723E-01
RMM:  10    -0.175919420731E+03   -0.62053E-03   -0.34920E-03 13483   0.138E-01    0.640E-01
RMM:  11    -0.175919707352E+03   -0.28662E-03   -0.19727E-03 13192   0.107E-01    0.461E-01
RMM:  12    -0.175919004247E+03    0.70311E-03   -0.84452E-04 12772   0.706E-02    0.270E-01
RMM:  13    -0.175918917793E+03    0.86453E-04   -0.48429E-04 13257   0.510E-02    0.224E-01
RMM:  14    -0.175918727374E+03    0.19042E-03   -0.20381E-04 12934   0.340E-02    0.921E-02
RMM:  15    -0.175918767693E+03   -0.40319E-04   -0.96317E-05 14355   0.217E-02    0.616E-02
RMM:  16    -0.175918820071E+03   -0.52378E-04   -0.38630E-05 13768   0.147E-02    0.596E-02
RMM:  17    -0.175918847940E+03   -0.27869E-04   -0.23295E-05 13458   0.115E-02    0.466E-02
RMM:  18    -0.175918894503E+03   -0.46562E-04   -0.27853E-05 12545   0.125E-02    0.329E-02
RMM:  19    -0.175918942722E+03   -0.48219E-04   -0.36598E-05 11262   0.148E-02    0.304E-02
RMM:  20    -0.175918970518E+03   -0.27796E-04   -0.42536E-05 10988   0.159E-02    0.172E-02
RMM:  21    -0.175918978920E+03   -0.84026E-05   -0.19935E-05 11771   0.108E-02
   2 F= -.17591898E+03 E0= -.17591992E+03  d E =-.167151E-01  mag=     0.0103
 trial-energy change:   -0.016715  1 .order   -0.016811   -0.435145    0.401523
 step:   0.5201(harm=  0.5201)  dis= 0.02400  next Energy=  -176.015422 (dE=-0.113E+00)
 bond charge predicted
       N       E                     dE             d eps       ncg     rms          rms(c)
DAV:   1    -0.176336064983E+03   -0.41709E+00   -0.19054E+01 11856   0.134E+01    0.484E+00
RMM:   2    -0.176060990369E+03    0.27507E+00   -0.11893E+00 10880   0.309E+00    0.398E+00
RMM:   3    -0.176143500799E+03   -0.82510E-01   -0.17857E-01 11075   0.131E+00    0.476E+00
RMM:   4    -0.176071422051E+03    0.72079E-01   -0.88572E-02 10883   0.824E-01    0.349E+00
RMM:   5    -0.176096462784E+03   -0.25041E-01   -0.87895E-02 11054   0.769E-01    0.366E+00
RMM:   6    -0.176021789134E+03    0.74674E-01   -0.33324E-02 11064   0.472E-01    0.124E+00
RMM:   7    -0.176022630480E+03   -0.84135E-03   -0.13810E-02 11235   0.308E-01    0.135E+00
RMM:   8    -0.176013894090E+03    0.87364E-02   -0.61710E-03 11696   0.193E-01    0.483E-01
RMM:   9    -0.176013400624E+03    0.49347E-03   -0.13021E-03 13193   0.979E-02    0.316E-01
RMM:  10    -0.176013225728E+03    0.17490E-03   -0.77005E-04 14171   0.608E-02    0.147E-01
RMM:  11    -0.176013555843E+03   -0.33011E-03   -0.54453E-04 12388   0.563E-02    0.283E-01
RMM:  12    -0.176013211118E+03    0.34472E-03   -0.23930E-04 11770   0.379E-02    0.116E-01
RMM:  13    -0.176013161955E+03    0.49163E-04   -0.10109E-04 12338   0.244E-02    0.928E-02
RMM:  14    -0.176013125764E+03    0.36191E-04   -0.34133E-05 12760   0.142E-02    0.377E-02
RMM:  15    -0.176013118906E+03    0.68585E-05   -0.11911E-05 14021   0.785E-03
   3 F= -.17601312E+03 E0= -.17601336E+03  d E =-.110855E+00  mag=     0.0086
 curvature:  -0.26 expect dE=-0.103E+00 dE for cont linesearch -0.761E-03
 trial: gam= 0.82812 g(F)=  0.367E+00 g(S)=  0.290E-01 ort = 0.357E-01 (trialstep = 0.522E+00)
 search vector abs. value=  0.754E+00
 bond charge predicted
       N       E                     dE             d eps       ncg     rms          rms(c)
DAV:   1    -0.176378177943E+03   -0.36505E+00   -0.38936E+01 11056   0.166E+01    0.521E+00
RMM:   2    -0.176168605011E+03    0.20957E+00   -0.20631E+00 10880   0.388E+00    0.555E+00
RMM:   3    -0.176311053751E+03   -0.14245E+00   -0.38300E-01 11058   0.171E+00    0.659E+00
RMM:   4    -0.176036469851E+03    0.27458E+00   -0.15954E-01 10884   0.111E+00    0.281E+00
RMM:   5    -0.176044146817E+03   -0.76770E-02   -0.62188E-02 11040   0.680E-01    0.318E+00
RMM:   6    -0.176015086058E+03    0.29061E-01   -0.31744E-02 11151   0.429E-01    0.227E+00
RMM:   7    -0.176008852037E+03    0.62340E-02   -0.14195E-02 11380   0.299E-01    0.180E+00
RMM:   8    -0.175995839334E+03    0.13013E-01   -0.11534E-02 11970   0.258E-01    0.748E-01
RMM:   9    -0.175995059411E+03    0.77992E-03   -0.23386E-03 12485   0.136E-01    0.617E-01
RMM:  10    -0.175994022195E+03    0.10372E-02   -0.23860E-03 12176   0.116E-01    0.376E-01
RMM:  11    -0.175993796554E+03    0.22564E-03   -0.85654E-04 12726   0.722E-02    0.298E-01
RMM:  12    -0.175993504225E+03    0.29233E-03   -0.46714E-04 12474   0.529E-02    0.111E-01
RMM:  13    -0.175993488921E+03    0.15304E-04   -0.13172E-04 14107   0.276E-02    0.894E-02
RMM:  14    -0.175993474202E+03    0.14719E-04   -0.57003E-05 14395   0.169E-02    0.562E-02
RMM:  15    -0.175993468009E+03    0.61929E-05   -0.30733E-05 15210   0.114E-02
   4 F= -.17599347E+03 E0= -.17599418E+03  d E =0.196509E-01  mag=     0.0033
 trial-energy change:    0.019651  1 .order   -0.069863   -0.222170    0.082444
 step:   0.3807(harm=  0.3807)  dis= 0.02593  next Energy=  -176.094139 (dE=-0.810E-01)
 bond charge predicted
       N       E                     dE             d eps       ncg     rms          rms(c)
DAV:   1    -0.176045846161E+03   -0.52372E-01   -0.29134E+00 11416   0.463E+00    0.138E+00
RMM:   2    -0.176032027412E+03    0.13819E-01   -0.15009E-01 10880   0.105E+00    0.163E+00
RMM:   3    -0.176036972682E+03   -0.49453E-02   -0.24254E-02 11087   0.435E-01    0.172E+00
RMM:   4    -0.176024816339E+03    0.12156E-01   -0.14426E-02 10882   0.321E-01    0.114E+00
RMM:   5    -0.176021579434E+03    0.32369E-02   -0.54275E-03 11040   0.204E-01    0.929E-01
RMM:   6    -0.176019055802E+03    0.25236E-02   -0.27049E-03 11165   0.121E-01    0.579E-01
RMM:   7    -0.176018895095E+03    0.16071E-03   -0.14512E-03 11278   0.977E-02    0.488E-01
RMM:   8    -0.176017677418E+03    0.12177E-02   -0.10099E-03 11573   0.790E-02    0.227E-01
RMM:   9    -0.176017501103E+03    0.17631E-03   -0.18811E-04 12825   0.381E-02    0.106E-01
RMM:  10    -0.176017483333E+03    0.17770E-04   -0.13392E-04 13029   0.254E-02    0.896E-02
RMM:  11    -0.176017481434E+03    0.18986E-05   -0.46908E-05 12398   0.173E-02
   5 F= -.17601748E+03 E0= -.17601810E+03  d E =-.436253E-02  mag=     0.0019
 curvature:  -0.34 expect dE=-0.253E+00 dE for cont linesearch -0.185E-01
 ZBRENT: interpolating
 opt :   0.2577  next Energy=  -176.029985 (dE=-0.169E-01)
 bond charge predicted
       N       E                     dE             d eps       ncg     rms          rms(c)
DAV:   1    -0.176063122186E+03   -0.45639E-01   -0.22046E+00 11152   0.402E+00    0.120E+00
RMM:   2    -0.176054397845E+03    0.87243E-02   -0.11371E-01 10880   0.919E-01    0.150E+00
RMM:   3    -0.176056496149E+03   -0.20983E-02   -0.18942E-02 11092   0.376E-01    0.150E+00
RMM:   4    -0.176046347233E+03    0.10149E-01   -0.10406E-02 10886   0.274E-01    0.920E-01
RMM:   5    -0.176044634618E+03    0.17126E-02   -0.35354E-03 11040   0.166E-01    0.795E-01
RMM:   6    -0.176042804275E+03    0.18303E-02   -0.20944E-03 11166   0.107E-01    0.471E-01
RMM:   7    -0.176042765870E+03    0.38406E-04   -0.10683E-03 11287   0.847E-02    0.412E-01
RMM:   8    -0.176041843673E+03    0.92220E-03   -0.73865E-04 11734   0.666E-02    0.150E-01
RMM:   9    -0.176041791947E+03    0.51727E-04   -0.12755E-04 13427   0.311E-02    0.962E-02
RMM:  10    -0.176041785737E+03    0.62100E-05   -0.84899E-05 13205   0.207E-02
   6 F= -.17604179E+03 E0= -.17604227E+03  d E =-.286668E-01  mag=     0.0012
 curvature:  -0.23 expect dE=-0.137E+00 dE for cont linesearch -0.688E-02
 ZBRENT: bisectioning
 opt :   0.1288  next Energy=  -176.057677 (dE=-0.446E-01)
 bond charge predicted
       N       E                     dE             d eps       ncg     rms          rms(c)
DAV:   1    -0.176072235209E+03   -0.30443E-01   -0.24143E+00 11096   0.421E+00    0.125E+00
RMM:   2    -0.176062712291E+03    0.95229E-02   -0.12424E-01 10880   0.959E-01    0.155E+00
RMM:   3    -0.176064810587E+03   -0.20983E-02   -0.19868E-02 11075   0.393E-01    0.156E+00
RMM:   4    -0.176053264005E+03    0.11547E-01   -0.10320E-02 10886   0.276E-01    0.830E-01
RMM:   5    -0.176052389893E+03    0.87411E-03   -0.41501E-03 11040   0.177E-01    0.805E-01
RMM:   6    -0.176050465698E+03    0.19242E-02   -0.22498E-03 11150   0.112E-01    0.514E-01
RMM:   7    -0.176050070705E+03    0.39499E-03   -0.10968E-03 11283   0.853E-02    0.386E-01
RMM:   8    -0.176049331803E+03    0.73890E-03   -0.81973E-04 11855   0.694E-02    0.182E-01
RMM:   9    -0.176049226473E+03    0.10533E-03   -0.14120E-04 13196   0.333E-02    0.937E-02
RMM:  10    -0.176049211253E+03    0.15220E-04   -0.10338E-04 13245   0.225E-02    0.658E-02
RMM:  11    -0.176049232410E+03   -0.21157E-04   -0.45826E-05 12338   0.166E-02    0.909E-02
RMM:  12    -0.176049194988E+03    0.37423E-04   -0.29035E-05 12361   0.132E-02    0.348E-02
RMM:  13    -0.176049190556E+03    0.44311E-05   -0.99191E-06 12616   0.799E-03
   7 F= -.17604919E+03 E0= -.17604957E+03  d E =-.360717E-01  mag=     0.0008
 curvature:  -0.53 expect dE=-0.215E+00 dE for cont linesearch -0.120E-01
 ZBRENT: interpolating
 opt :   0.1887  next Energy=  -176.053111 (dE=-0.400E-01)
 bond charge predicted
       N       E                     dE             d eps       ncg     rms          rms(c)
DAV:   1    -0.176055936945E+03   -0.67420E-02   -0.51879E-01 11336   0.194E+00    0.583E-01
RMM:   2    -0.176053295995E+03    0.26409E-02   -0.26913E-02 10880   0.444E-01    0.650E-01
RMM:   3    -0.176054943669E+03   -0.16477E-02   -0.46516E-03 11080   0.190E-01    0.789E-01
RMM:   4    -0.176051698394E+03    0.32453E-02   -0.23357E-03 10880   0.131E-01    0.376E-01
RMM:   5    -0.176051564126E+03    0.13427E-03   -0.85305E-04 11040   0.806E-02    0.373E-01
RMM:   6    -0.176051126595E+03    0.43753E-03   -0.43259E-04 11142   0.493E-02    0.225E-01
RMM:   7    -0.176051143568E+03   -0.16973E-04   -0.23573E-04 11259   0.397E-02    0.210E-01
RMM:   8    -0.176050919484E+03    0.22408E-03   -0.16281E-04 11675   0.313E-02    0.736E-02
RMM:   9    -0.176050907214E+03    0.12269E-04   -0.28932E-05 13303   0.149E-02    0.459E-02
RMM:  10    -0.176050906544E+03    0.67064E-06   -0.21563E-05 13001   0.106E-02
   8 F= -.17605091E+03 E0= -.17605135E+03  d E =-.377876E-01  mag=     0.0006
 curvature:  -0.17 expect dE=-0.901E-01 dE for cont linesearch -0.910E-03
 trial: gam= 0.99533 g(F)=  0.459E+00 g(S)=  0.633E-01 ort =-0.631E-01 (trialstep = 0.300E+00)
 search vector abs. value=  0.114E+01
 bond charge predicted
       N       E                     dE             d eps       ncg     rms          rms(c)
DAV:   1    -0.176160844508E+03   -0.10994E+00   -0.19570E+01 10880   0.114E+01    0.295E+00
RMM:   2    -0.176257950878E+03   -0.97106E-01   -0.80186E-01 10880   0.257E+00    0.567E+00
RMM:   3    -0.176126502320E+03    0.13145E+00   -0.12275E-01 11063   0.978E-01    0.232E+00
RMM:   4    -0.176118505553E+03    0.79968E-02   -0.63129E-02 10903   0.650E-01    0.283E+00
RMM:   5    -0.176101458773E+03    0.17047E-01   -0.29999E-02 10965   0.453E-01    0.217E+00
RMM:   6    -0.176097685137E+03    0.37736E-02   -0.18247E-02 11082   0.333E-01    0.201E+00
RMM:   7    -0.176082734949E+03    0.14950E-01   -0.80571E-03 11059   0.230E-01    0.985E-01
RMM:   8    -0.176078539139E+03    0.41958E-02   -0.49601E-03 11470   0.177E-01    0.466E-01
RMM:   9    -0.176078254998E+03    0.28414E-03   -0.95117E-04 12095   0.832E-02    0.371E-01
RMM:  10    -0.176077829207E+03    0.42579E-03   -0.53097E-04 12441   0.533E-02    0.255E-01
RMM:  11    -0.176077575038E+03    0.25417E-03   -0.25479E-04 12051   0.385E-02    0.102E-01
RMM:  12    -0.176077574898E+03    0.13937E-06   -0.19846E-04 12125   0.335E-02    0.994E-02
RMM:  13    -0.176077546011E+03    0.28887E-04   -0.44368E-05 12092   0.168E-02    0.509E-02
RMM:  14    -0.176077535545E+03    0.10466E-04   -0.18047E-05 12748   0.101E-02    0.248E-02
RMM:  15    -0.176077536385E+03   -0.84008E-06   -0.66624E-06 12471   0.613E-03
   9 F= -.17607754E+03 E0= -.17607779E+03  d E =-.266298E-01  mag=     0.0003
 trial-energy change:   -0.026630  1 .order   -0.063679   -0.137974    0.010616
 step:   0.1680(harm=  0.2786)  dis= 0.01735  next Energy=  -176.083030 (dE=-0.321E-01)
 bond charge predicted
       N       E                     dE             d eps       ncg     rms          rms(c)
DAV:   1    -0.176099290207E+03   -0.21755E-01   -0.38223E+00 10896   0.511E+00    0.133E+00
RMM:   2    -0.176125230929E+03   -0.25941E-01   -0.16210E-01 10880   0.115E+00    0.273E+00
RMM:   3    -0.176089597774E+03    0.35633E-01   -0.22956E-02 11072   0.414E-01    0.864E-01
RMM:   4    -0.176090845794E+03   -0.12480E-02   -0.11723E-02 10915   0.276E-01    0.127E+00
RMM:   5    -0.176088001051E+03    0.28447E-02   -0.55991E-03 10962   0.195E-01    0.100E+00
RMM:   6    -0.176084780698E+03    0.32204E-02   -0.30725E-03 11060   0.137E-01    0.626E-01
RMM:   7    -0.176083611367E+03    0.11693E-02   -0.14237E-03 11070   0.997E-02    0.384E-01
RMM:   8    -0.176082870486E+03    0.74088E-03   -0.85451E-04 11543   0.717E-02    0.149E-01
RMM:   9    -0.176082807893E+03    0.62593E-04   -0.15272E-04 12315   0.337E-02    0.974E-02
RMM:  10    -0.176082784412E+03    0.23481E-04   -0.76170E-05 13597   0.187E-02    0.645E-02
RMM:  11    -0.176082812481E+03   -0.28070E-04   -0.53922E-05 11527   0.183E-02    0.101E-01
RMM:  12    -0.176082766914E+03    0.45568E-04   -0.34192E-05 11411   0.143E-02    0.448E-02
RMM:  13    -0.176082759135E+03    0.77790E-05   -0.65522E-06 12062   0.661E-03
  10 F= -.17608276E+03 E0= -.17608310E+03  d E =-.318526E-01  mag=     0.0002
 curvature:   8.88 expect dE= 0.346E+01 dE for cont linesearch  0.240E-02
 trial: gam= 0.36459 g(F)=  0.271E+00 g(S)=  0.118E+00 ort =-0.176E-01 (trialstep = 0.274E+00)
 search vector abs. value=  0.529E+00
 bond charge predicted
       N       E                     dE             d eps       ncg     rms          rms(c)
DAV:   1    -0.176135434565E+03   -0.52668E-01   -0.76643E+00 10880   0.748E+00    0.261E+00
RMM:   2    -0.176190942026E+03   -0.55507E-01   -0.29669E-01 10880   0.162E+00    0.364E+00
RMM:   3    -0.176144949849E+03    0.45992E-01   -0.51345E-02 11060   0.653E-01    0.206E+00
RMM:   4    -0.176153671849E+03   -0.87220E-02   -0.42277E-02 10904   0.542E-01    0.235E+00
RMM:   5    -0.176133923224E+03    0.19749E-01   -0.25811E-02 11040   0.413E-01    0.151E+00
RMM:   6    -0.176132653986E+03    0.12692E-02   -0.12448E-02 11062   0.280E-01    0.143E+00
RMM:   7    -0.176123350382E+03    0.93036E-02   -0.59510E-03 11051   0.192E-01    0.469E-01
RMM:   8    -0.176122807826E+03    0.54256E-03   -0.16553E-03 11054   0.109E-01    0.467E-01
RMM:   9    -0.176121799566E+03    0.10083E-02   -0.59456E-04 11071   0.633E-02    0.149E-01
RMM:  10    -0.176121875675E+03   -0.76109E-04   -0.16353E-04 11454   0.332E-02    0.193E-01
RMM:  11    -0.176121712682E+03    0.16299E-03   -0.81108E-05 11435   0.224E-02    0.742E-02
RMM:  12    -0.176121700632E+03    0.12049E-04   -0.41009E-05 12459   0.148E-02    0.546E-02
RMM:  13    -0.176121691387E+03    0.92456E-05   -0.16398E-05 11285   0.103E-02
  11 F= -.17612169E+03 E0= -.17612147E+03  d E =-.389323E-01  mag=     0.0001
 trial-energy change:   -0.038932  1 .order   -0.055206   -0.104813   -0.005599
 step:   0.2891(harm=  0.2891)  dis= 0.01687  next Energy=  -176.138123 (dE=-0.554E-01)
 bond charge predicted
       N       E                     dE             d eps       ncg     rms          rms(c)
DAV:   1    -0.176121826590E+03   -0.12596E-03   -0.24384E-02 11552   0.421E-01    0.149E-01
RMM:   2    -0.176122001292E+03   -0.17470E-03   -0.92888E-04 10882   0.917E-02    0.206E-01
RMM:   3    -0.176121860527E+03    0.14077E-03   -0.16204E-04 11072   0.364E-02    0.118E-01
RMM:   4    -0.176121857878E+03    0.26492E-05   -0.12919E-04 10902   0.300E-02    0.112E-01
RMM:   5    -0.176121814424E+03    0.43454E-04   -0.71494E-05 11040   0.216E-02    0.736E-02
RMM:   6    -0.176121790864E+03    0.23560E-04   -0.30098E-05 11087   0.136E-02    0.443E-02
RMM:   7    -0.176121787598E+03    0.32656E-05   -0.90998E-06 11049   0.800E-03
  12 F= -.17612179E+03 E0= -.17612154E+03  d E =-.390285E-01  mag=     0.0001
 curvature:  -0.20 expect dE=-0.671E-01 dE for cont linesearch -0.291E-04
 trial: gam= 0.82447 g(F)=  0.320E+00 g(S)=  0.156E-01 ort =-0.878E-02 (trialstep = 0.215E+00)
 search vector abs. value=  0.681E+00
 bond charge predicted
       N       E                     dE             d eps       ncg     rms          rms(c)
DAV:   1    -0.176146148469E+03   -0.24358E-01   -0.61481E+00 10880   0.637E+00    0.185E+00
RMM:   2    -0.176188652816E+03   -0.42504E-01   -0.20184E-01 10880   0.139E+00    0.285E+00
RMM:   3    -0.176154277671E+03    0.34375E-01   -0.30625E-02 11142   0.499E-01    0.129E+00
RMM:   4    -0.176165135473E+03   -0.10858E-01   -0.22146E-02 10890   0.388E-01    0.194E+00
RMM:   5    -0.176148227610E+03    0.16908E-01   -0.11611E-02 10922   0.283E-01    0.832E-01
RMM:   6    -0.176150830312E+03   -0.26027E-02   -0.61980E-03 11062   0.197E-01    0.110E+00
RMM:   7    -0.176145109687E+03    0.57206E-02   -0.25147E-03 11080   0.123E-01    0.268E-01
RMM:   8    -0.176145019574E+03    0.90112E-04   -0.78880E-04 11266   0.745E-02    0.316E-01
RMM:   9    -0.176144544798E+03    0.47478E-03   -0.30073E-04 11330   0.440E-02    0.844E-02
RMM:  10    -0.176144604962E+03   -0.60164E-04   -0.79746E-05 11801   0.230E-02    0.141E-01
RMM:  11    -0.176144517100E+03    0.87862E-04   -0.33276E-05 11492   0.147E-02    0.555E-02
RMM:  12    -0.176144521392E+03   -0.42923E-05   -0.18165E-05 12149   0.103E-02
  13 F= -.17614452E+03 E0= -.17614377E+03  d E =-.227338E-01  mag=     0.0001
 trial-energy change:   -0.022734  1 .order   -0.030805   -0.070649    0.009039
 step:   0.1683(harm=  0.1905)  dis= 0.01436  next Energy=  -176.145582 (dE=-0.238E-01)
 bond charge predicted
       N       E                     dE             d eps       ncg     rms          rms(c)
DAV:   1    -0.176146099032E+03   -0.15819E-02   -0.28733E-01 10944   0.137E+00    0.410E-01
RMM:   2    -0.176148261898E+03   -0.21629E-02   -0.95943E-03 10880   0.304E-01    0.634E-01
RMM:   3    -0.176146507316E+03    0.17546E-02   -0.15233E-03 11112   0.111E-01    0.286E-01
RMM:   4    -0.176147012334E+03   -0.50502E-03   -0.10268E-03 10890   0.839E-02    0.441E-01
RMM:   5    -0.176146127378E+03    0.88496E-03   -0.49687E-04 10983   0.589E-02    0.150E-01
RMM:   6    -0.176146123451E+03    0.39267E-05   -0.22184E-04 11073   0.375E-02    0.153E-01
RMM:   7    -0.176146035494E+03    0.87957E-04   -0.71621E-05 11209   0.211E-02    0.720E-02
RMM:   8    -0.176146032073E+03    0.34208E-05   -0.34964E-05 11139   0.154E-02
  14 F= -.17614603E+03 E0= -.17614542E+03  d E =-.242445E-01  mag=     0.0001
 curvature:  -0.03 expect dE=-0.130E-01 dE for cont linesearch -0.861E-04
 trial: gam= 0.77651 g(F)=  0.327E+00 g(S)=  0.527E-01 ort =-0.414E-01 (trialstep = 0.193E+00)
 search vector abs. value=  0.726E+00
 bond charge predicted
       N       E                     dE             d eps       ncg     rms          rms(c)
DAV:   1    -0.176162718455E+03   -0.16683E-01   -0.54099E+00 10880   0.563E+00    0.114E+00
RMM:   2    -0.176204156602E+03   -0.41438E-01   -0.16257E-01 10882   0.128E+00    0.290E+00
RMM:   3    -0.176171933098E+03    0.32224E-01   -0.18267E-02 12608   0.345E-01    0.140E+00
RMM:   4    -0.176179869012E+03   -0.79359E-02   -0.73959E-03 11137   0.222E-01    0.175E+00
RMM:   5    -0.176171456986E+03    0.84120E-02   -0.75041E-03 10900   0.222E-01    0.125E+00
RMM:   6    -0.176167489360E+03    0.39676E-02   -0.43107E-03 10928   0.166E-01    0.714E-01
RMM:   7    -0.176165578407E+03    0.19110E-02   -0.15443E-03 11198   0.102E-01    0.384E-01
RMM:   8    -0.176165148766E+03    0.42964E-03   -0.60586E-04 11350   0.618E-02    0.265E-01
RMM:   9    -0.176164876918E+03    0.27185E-03   -0.19223E-04 11620   0.331E-02    0.139E-01
RMM:  10    -0.176164809425E+03    0.67493E-04   -0.13850E-04 11479   0.258E-02    0.999E-02
RMM:  11    -0.176164805418E+03    0.40069E-05   -0.78639E-05 11012   0.216E-02
  15 F= -.17616481E+03 E0= -.17616428E+03  d E =-.187733E-01  mag=     0.0001
 trial-energy change:   -0.018773  1 .order   -0.021095   -0.067026    0.024836
 step:   0.1344(harm=  0.1406)  dis= 0.01212  next Energy=  -176.168624 (dE=-0.226E-01)
 bond charge predicted
       N       E                     dE             d eps       ncg     rms          rms(c)
DAV:   1    -0.176167325686E+03   -0.25163E-02   -0.49495E-01 10912   0.171E+00    0.345E-01
RMM:   2    -0.176172511466E+03   -0.51858E-02   -0.16088E-02 10884   0.400E-01    0.992E-01
RMM:   3    -0.176168145963E+03    0.43655E-02   -0.17884E-03 11585   0.116E-01    0.426E-01
RMM:   4    -0.176168557789E+03   -0.41183E-03   -0.58062E-04 11284   0.606E-02    0.470E-01
RMM:   5    -0.176168182259E+03    0.37553E-03   -0.73827E-04 10886   0.685E-02    0.391E-01
RMM:   6    -0.176167693073E+03    0.48919E-03   -0.40250E-04 10920   0.516E-02    0.187E-01
RMM:   7    -0.176167574583E+03    0.11849E-03   -0.14165E-04 11327   0.307E-02    0.116E-01
RMM:   8    -0.176167529415E+03    0.45168E-04   -0.49830E-05 11529   0.173E-02    0.825E-02
RMM:   9    -0.176167498774E+03    0.30641E-04   -0.18855E-05 11478   0.103E-02    0.321E-02
RMM:  10    -0.176167496207E+03    0.25670E-05   -0.96328E-06 11465   0.686E-03
  16 F= -.17616750E+03 E0= -.17616689E+03  d E =-.214641E-01  mag=     0.0001
 curvature:  -0.14 expect dE=-0.310E-01 dE for cont linesearch -0.949E-04
 trial: gam= 0.28499 g(F)=  0.178E+00 g(S)=  0.367E-01 ort = 0.218E-01 (trialstep = 0.181E+00)
 search vector abs. value=  0.286E+00
 bond charge predicted
       N       E                     dE             d eps       ncg     rms          rms(c)
DAV:   1    -0.176194691442E+03   -0.27193E-01   -0.18079E+00 10880   0.353E+00    0.908E-01
RMM:   2    -0.176208602416E+03   -0.13911E-01   -0.77908E-02 10880   0.804E-01    0.204E+00
RMM:   3    -0.176190875710E+03    0.17727E-01   -0.78819E-03 11423   0.257E-01    0.614E-01
RMM:   4    -0.176192526171E+03   -0.16505E-02   -0.47415E-03 10885   0.183E-01    0.864E-01
RMM:   5    -0.176191143698E+03    0.13825E-02   -0.33804E-03 11040   0.154E-01    0.757E-01
RMM:   6    -0.176189781027E+03    0.13627E-02   -0.17094E-03 11087   0.103E-01    0.408E-01
RMM:   7    -0.176189695808E+03    0.85218E-04   -0.85111E-04 11080   0.757E-02    0.398E-01
RMM:   8    -0.176189090106E+03    0.60570E-03   -0.43823E-04 11217   0.520E-02    0.206E-01
RMM:   9    -0.176188907706E+03    0.18240E-03   -0.94578E-05 12148   0.258E-02    0.765E-02
RMM:  10    -0.176188909121E+03   -0.14147E-05   -0.53329E-05 12800   0.161E-02
  17 F= -.17618891E+03 E0= -.17618844E+03  d E =-.214129E-01  mag=     0.0001
 trial-energy change:   -0.021413  1 .order   -0.021013   -0.039955   -0.002072
 step:   0.1903(harm=  0.1910)  dis= 0.01040  next Energy=  -176.188962 (dE=-0.215E-01)
 bond charge predicted
       N       E                     dE             d eps       ncg     rms          rms(c)
DAV:   1    -0.176189068577E+03   -0.16087E-03   -0.47916E-03 11696   0.186E-01    0.703E-02
RMM:   2    -0.176189207946E+03   -0.13937E-03   -0.32867E-04 10884   0.550E-02    0.171E-01
RMM:   3    -0.176189057331E+03    0.15061E-03   -0.72183E-05 11042   0.221E-02    0.447E-02
RMM:   4    -0.176189064767E+03   -0.74361E-05   -0.16982E-05 11074   0.107E-02
  18 F= -.17618906E+03 E0= -.17618862E+03  d E =-.215686E-01  mag=     0.0001
 curvature:  -0.12 expect dE=-0.114E-01 dE for cont linesearch -0.895E-04
 trial: gam= 0.28588 g(F)=  0.850E-01 g(S)=  0.740E-02 ort = 0.144E-01 (trialstep = 0.183E+00)
 search vector abs. value=  0.124E+00
 bond charge predicted
       N       E                     dE             d eps       ncg     rms          rms(c)
DAV:   1    -0.176205023331E+03   -0.15966E-01   -0.83811E-01 10944   0.249E+00    0.561E-01
RMM:   2    -0.176210709988E+03   -0.56867E-02   -0.33772E-02 10880   0.549E-01    0.120E+00
RMM:   3    -0.176204629587E+03    0.60804E-02   -0.35827E-03 11383   0.172E-01    0.505E-01
RMM:   4    -0.176206016087E+03   -0.13865E-02   -0.16098E-03 10908   0.102E-01    0.701E-01
RMM:   5    -0.176205265406E+03    0.75068E-03   -0.18197E-03 10926   0.113E-01    0.584E-01
RMM:   6    -0.176204663684E+03    0.60172E-03   -0.74635E-04 11092   0.693E-02    0.376E-01
RMM:   7    -0.176204028652E+03    0.63503E-03   -0.69118E-04 11048   0.656E-02    0.229E-01
RMM:   8    -0.176203826194E+03    0.20246E-03   -0.21389E-04 11096   0.383E-02    0.146E-01
RMM:   9    -0.176203713523E+03    0.11267E-03   -0.59737E-05 11499   0.194E-02    0.404E-02
RMM:  10    -0.176203718107E+03   -0.45840E-05   -0.20179E-05 12642   0.102E-02
  19 F= -.17620372E+03 E0= -.17620329E+03  d E =-.146533E-01  mag=     0.0000
 trial-energy change:   -0.014653  1 .order   -0.014729   -0.017649   -0.011810
 step:   0.7156(harm=  0.5528)  dis= 0.01340  next Energy=  -176.219038 (dE=-0.300E-01)
 bond charge predicted
       N       E                     dE             d eps       ncg     rms          rms(c)
DAV:   1    -0.176216387974E+03   -0.12674E-01   -0.70781E+00 10880   0.722E+00    0.167E+00
RMM:   2    -0.176264290873E+03   -0.47903E-01   -0.28374E-01 10880   0.159E+00    0.352E+00
RMM:   3    -0.176213241097E+03    0.51050E-01   -0.30198E-02 11362   0.506E-01    0.148E+00
RMM:   4    -0.176226755373E+03   -0.13514E-01   -0.14841E-02 10900   0.310E-01    0.210E+00
RMM:   5    -0.176220238093E+03    0.65173E-02   -0.16777E-02 10946   0.344E-01    0.178E+00
RMM:   6    -0.176213309312E+03    0.69288E-02   -0.56784E-03 11112   0.197E-01    0.112E+00
RMM:   7    -0.176208063126E+03    0.52462E-02   -0.48320E-03 11048   0.179E-01    0.668E-01
RMM:   8    -0.176206209981E+03    0.18531E-02   -0.15013E-03 11240   0.978E-02    0.391E-01
RMM:   9    -0.176205412553E+03    0.79743E-03   -0.50936E-04 11605   0.544E-02    0.125E-01
RMM:  10    -0.176205426916E+03   -0.14363E-04   -0.16321E-04 12589   0.290E-02    0.150E-01
RMM:  11    -0.176205389621E+03    0.37296E-04   -0.10221E-04 11246   0.242E-02    0.877E-02
RMM:  12    -0.176205411800E+03   -0.22179E-04   -0.52000E-05 11181   0.176E-02    0.961E-02
RMM:  13    -0.176205366181E+03    0.45619E-04   -0.33291E-05 11419   0.138E-02    0.248E-02
RMM:  14    -0.176205362042E+03    0.41388E-05   -0.72169E-06 12892   0.642E-03
  20 F= -.17620536E+03 E0= -.17620501E+03  d E =-.162973E-01  mag=     0.0000
 curvature:  -0.29 expect dE=-0.103E+00 dE for cont linesearch -0.816E-02
 ZBRENT: interpolating
 opt :   0.4603  next Energy=  -176.212945 (dE=-0.239E-01)
 bond charge predicted
       N       E                     dE             d eps       ncg     rms          rms(c)
DAV:   1    -0.176216060338E+03   -0.10694E-01   -0.16356E+00 10880   0.349E+00    0.791E-01
RMM:   2    -0.176228125983E+03   -0.12066E-01   -0.66854E-02 10880   0.771E-01    0.173E+00
RMM:   3    -0.176215307848E+03    0.12818E-01   -0.70676E-03 11424   0.238E-01    0.730E-01
RMM:   4    -0.176217864923E+03   -0.25571E-02   -0.29014E-03 10916   0.138E-01    0.974E-01
RMM:   5    -0.176216525063E+03    0.13399E-02   -0.35558E-03 10884   0.159E-01    0.810E-01
RMM:   6    -0.176215546919E+03    0.97814E-03   -0.16783E-03 11087   0.104E-01    0.555E-01
RMM:   7    -0.176213950816E+03    0.15961E-02   -0.12085E-03 11070   0.882E-02    0.285E-01
RMM:   8    -0.176213639874E+03    0.31094E-03   -0.39476E-04 11142   0.514E-02    0.173E-01
RMM:   9    -0.176213475891E+03    0.16398E-03   -0.10730E-04 11500   0.256E-02    0.574E-02
RMM:  10    -0.176213486289E+03   -0.10398E-04   -0.34009E-05 12728   0.135E-02    0.740E-02
RMM:  11    -0.176213480892E+03    0.53961E-05   -0.20531E-05 11284   0.110E-02
  21 F= -.17621348E+03 E0= -.17621304E+03  d E =-.244161E-01  mag=     0.0000
 curvature:  -0.27 expect dE=-0.475E-01 dE for cont linesearch -0.213E-04
 trial: gam= 1.95837 g(F)=  0.168E+00 g(S)=  0.989E-02 ort =-0.315E-02 (trialstep = 0.461E-01)
 search vector abs. value=  0.641E+00
 bond charge predicted
       N       E                     dE             d eps       ncg     rms          rms(c)
DAV:   1    -0.176219439623E+03   -0.59533E-02   -0.27738E-01 10928   0.138E+00    0.269E-01
RMM:   2    -0.176222596373E+03   -0.31567E-02   -0.94093E-03 10886   0.305E-01    0.779E-01
RMM:   3    -0.176219772023E+03    0.28243E-02   -0.11902E-03 11201   0.987E-02    0.196E-01
RMM:   4    -0.176220006612E+03   -0.23459E-03   -0.49407E-04 10987   0.567E-02    0.318E-01
RMM:   5    -0.176219645219E+03    0.36139E-03   -0.26436E-04 10940   0.425E-02    0.162E-01
RMM:   6    -0.176219727036E+03   -0.81817E-04   -0.17121E-04 11058   0.328E-02    0.193E-01
RMM:   7    -0.176219540600E+03    0.18644E-03   -0.72866E-05 11072   0.217E-02    0.490E-02
RMM:   8    -0.176219536739E+03    0.38607E-05   -0.22332E-05 11793   0.116E-02
  22 F= -.17621954E+03 E0= -.17621914E+03  d E =-.605585E-02  mag=     0.0000
 trial-energy change:   -0.006056  1 .order   -0.005972   -0.007930   -0.004014
 step:   0.0843(harm=  0.0933)  dis= 0.00455  next Energy=  -176.221249 (dE=-0.777E-02)
 bond charge predicted
       N       E                     dE             d eps       ncg     rms          rms(c)
DAV:   1    -0.176222562357E+03   -0.30218E-02   -0.19146E-01 10960   0.114E+00    0.213E-01
RMM:   2    -0.176223680365E+03   -0.11180E-02   -0.58253E-03 10880   0.245E-01    0.466E-01
RMM:   3    -0.176222821491E+03    0.85887E-03   -0.67887E-04 12001   0.719E-02    0.154E-01
RMM:   4    -0.176223062178E+03   -0.24069E-03   -0.30082E-04 10948   0.438E-02    0.279E-01
RMM:   5    -0.176222824112E+03    0.23807E-03   -0.17868E-04 10935   0.349E-02    0.168E-01
RMM:   6    -0.176222799100E+03    0.25012E-04   -0.10722E-04 11066   0.255E-02    0.135E-01
RMM:   7    -0.176222714101E+03    0.84999E-04   -0.49502E-05 11092   0.180E-02    0.519E-02
RMM:   8    -0.176222705809E+03    0.82926E-05   -0.15868E-05 11602   0.991E-03
  23 F= -.17622271E+03 E0= -.17622229E+03  d E =-.922492E-02  mag=     0.0000
 curvature:  -0.17 expect dE=-0.254E-01 dE for cont linesearch -0.609E-03
 ZBRENT: increasing intervall
 opt :   0.1607  next Energy=  -176.223427 (dE=-0.995E-02)
 bond charge predicted
       N       E                     dE             d eps       ncg     rms          rms(c)
DAV:   1    -0.176222211738E+03    0.50236E-03   -0.76729E-01 10880   0.229E+00    0.426E-01
RMM:   2    -0.176227188039E+03   -0.49763E-02   -0.23293E-02 10880   0.487E-01    0.985E-01
RMM:   3    -0.176223186302E+03    0.40017E-02   -0.26502E-03 11716   0.147E-01    0.313E-01
RMM:   4    -0.176224074216E+03   -0.88791E-03   -0.11783E-03 10950   0.868E-02    0.545E-01
RMM:   5    -0.176223160281E+03    0.91393E-03   -0.73623E-04 10918   0.706E-02    0.334E-01
RMM:   6    -0.176222906447E+03    0.25383E-03   -0.38594E-04 11078   0.493E-02    0.210E-01
RMM:   7    -0.176222736048E+03    0.17040E-03   -0.16191E-04 11179   0.322E-02    0.119E-01
RMM:   8    -0.176222688690E+03    0.47357E-04   -0.57049E-05 11630   0.189E-02    0.791E-02
RMM:   9    -0.176222667350E+03    0.21341E-04   -0.14205E-05 12090   0.942E-03    0.443E-02
RMM:  10    -0.176222669959E+03   -0.26088E-05   -0.79499E-06 11608   0.663E-03
  24 F= -.17622267E+03 E0= -.17622225E+03  d E =-.918907E-02  mag=     0.0000
 curvature:  -0.20 expect dE=-0.440E-01 dE for cont linesearch -0.195E-02
 ZBRENT: bracketing found
 ZBRENT: interpolating
 opt :   0.1132  next Energy=  -176.223404 (dE=-0.992E-02)
 bond charge predicted
       N       E                     dE             d eps       ncg     rms          rms(c)
DAV:   1    -0.176223110108E+03   -0.44276E-03   -0.29690E-01 10912   0.142E+00    0.267E-01
RMM:   2    -0.176226157354E+03   -0.30472E-02   -0.97806E-03 10884   0.312E-01    0.773E-01
RMM:   3    -0.176223475968E+03    0.26814E-02   -0.11709E-03 11347   0.977E-02    0.211E-01
RMM:   4    -0.176223712783E+03   -0.23681E-03   -0.41926E-04 11033   0.521E-02    0.320E-01
RMM:   5    -0.176223411917E+03    0.30087E-03   -0.29282E-04 10908   0.448E-02    0.206E-01
RMM:   6    -0.176223375559E+03    0.36358E-04   -0.16741E-04 11059   0.326E-02    0.165E-01
RMM:   7    -0.176223238715E+03    0.13684E-03   -0.78253E-05 11079   0.226E-02    0.630E-02
RMM:   8    -0.176223229445E+03    0.92693E-05   -0.23677E-05 11571   0.123E-02
  25 F= -.17622323E+03 E0= -.17622278E+03  d E =-.974855E-02  mag=     0.0000
 curvature:  -0.07 expect dE=-0.115E-01 dE for cont linesearch -0.331E-05
 trial: gam= 0.51974 g(F)=  0.152E+00 g(S)=  0.940E-02 ort =-0.547E-02 (trialstep = 0.595E-01)
 search vector abs. value=  0.329E+00
 bond charge predicted
       N       E                     dE             d eps       ncg     rms          rms(c)
DAV:   1    -0.176231871669E+03   -0.86330E-02   -0.23832E-01 10928   0.129E+00    0.202E-01
RMM:   2    -0.176234028984E+03   -0.21573E-02   -0.69128E-03 10892   0.271E-01    0.626E-01
RMM:   3    -0.176232196419E+03    0.18326E-02   -0.71305E-04 11080   0.820E-02    0.171E-01
RMM:   4    -0.176232229478E+03   -0.33059E-04   -0.19903E-04 11727   0.360E-02    0.211E-01
RMM:   5    -0.176232191110E+03    0.38369E-04   -0.16874E-04 11399   0.320E-02    0.186E-01
RMM:   6    -0.176232156121E+03    0.34989E-04   -0.12238E-04 11181   0.271E-02    0.155E-01
RMM:   7    -0.176232063523E+03    0.92598E-04   -0.75222E-05 11176   0.216E-02    0.698E-02
RMM:   8    -0.176232037034E+03    0.26489E-04   -0.25330E-05 11641   0.122E-02    0.318E-02
RMM:   9    -0.176232033187E+03    0.38470E-05   -0.42341E-06 11378   0.572E-03
  26 F= -.17623203E+03 E0= -.17623150E+03  d E =-.880374E-02  mag=     0.0000
 trial-energy change:   -0.008804  1 .order   -0.007571   -0.009440   -0.005702
 step:   0.0835(harm=  0.1503)  dis= 0.00230  next Energy=  -176.233265 (dE=-0.100E-01)
 bond charge predicted
       N       E                     dE             d eps       ncg     rms          rms(c)
DAV:   1    -0.176233789820E+03   -0.17528E-02   -0.38821E-02 11184   0.522E-01    0.792E-02
RMM:   2    -0.176234008827E+03   -0.21901E-03   -0.10657E-03 10898   0.107E-01    0.192E-01
RMM:   3    -0.176233847469E+03    0.16136E-03   -0.97545E-05 11870   0.298E-02    0.697E-02
RMM:   4    -0.176233858728E+03   -0.11259E-04   -0.33126E-05 11700   0.146E-02    0.896E-02
RMM:   5    -0.176233851011E+03    0.77170E-05   -0.24491E-05 11439   0.121E-02
  27 F= -.17623385E+03 E0= -.17623330E+03  d E =-.106216E-01  mag=     0.0000
 curvature:  -0.07 expect dE=-0.746E-02 dE for cont linesearch -0.871E-03
 ZBRENT: increasing intervall
 opt :   0.1316  next Energy=  -176.235328 (dE=-0.121E-01)
 bond charge predicted
       N       E                     dE             d eps       ncg     rms          rms(c)
DAV:   1    -0.176235694525E+03   -0.18358E-02   -0.15509E-01 10944   0.104E+00    0.162E-01
RMM:   2    -0.176236393220E+03   -0.69869E-03   -0.40343E-03 10888   0.209E-01    0.341E-01
RMM:   3    -0.176235916075E+03    0.47714E-03   -0.36792E-04 11818   0.585E-02    0.133E-01
RMM:   4    -0.176235967240E+03   -0.51165E-04   -0.12558E-04 11717   0.284E-02    0.173E-01
RMM:   5    -0.176235937933E+03    0.29307E-04   -0.10418E-04 11534   0.252E-02    0.147E-01
RMM:   6    -0.176235919111E+03    0.18822E-04   -0.95211E-05 11178   0.234E-02    0.125E-01
RMM:   7    -0.176235856371E+03    0.62740E-04   -0.45347E-05 11206   0.170E-02    0.486E-02
RMM:   8    -0.176235845721E+03    0.10649E-04   -0.15314E-05 11375   0.100E-02    0.337E-02
RMM:   9    -0.176235839824E+03    0.58974E-05   -0.35736E-06 11194   0.475E-03
  28 F= -.17623584E+03 E0= -.17623519E+03  d E =-.126104E-01  mag=     0.0000
 curvature:  -0.12 expect dE=-0.106E-01 dE for cont linesearch -0.896E-04
 trial: gam= 0.26551 g(F)=  0.813E-01 g(S)=  0.574E-02 ort = 0.156E-01 (trialstep = 0.739E-01)
 search vector abs. value=  0.118E+00
 bond charge predicted
       N       E                     dE             d eps       ncg     rms          rms(c)
DAV:   1    -0.176240284175E+03   -0.44385E-02   -0.13065E-01 10976   0.972E-01    0.236E-01
RMM:   2    -0.176241501019E+03   -0.12168E-02   -0.40077E-03 10884   0.210E-01    0.477E-01
RMM:   3    -0.176240486289E+03    0.10147E-02   -0.43841E-04 11218   0.640E-02    0.151E-01
RMM:   4    -0.176240631158E+03   -0.14487E-03   -0.25464E-04 11212   0.413E-02    0.204E-01
RMM:   5    -0.176240525863E+03    0.10530E-03   -0.19668E-04 11152   0.354E-02    0.158E-01
RMM:   6    -0.176240526476E+03   -0.61345E-06   -0.10995E-04 11017   0.263E-02    0.146E-01
RMM:   7    -0.176240423746E+03    0.10273E-03   -0.43976E-05 11193   0.174E-02    0.306E-02
RMM:   8    -0.176240414188E+03    0.95582E-05   -0.11055E-05 11875   0.796E-03
  29 F= -.17624041E+03 E0= -.17623978E+03  d E =-.457436E-02  mag=     0.0000
 trial-energy change:   -0.004574  1 .order   -0.004842   -0.006737   -0.002947
 step:   0.1314(harm=  0.1314)  dis= 0.00237  next Energy=  -176.241827 (dE=-0.599E-02)
 bond charge predicted
       N       E                     dE             d eps       ncg     rms          rms(c)
DAV:   1    -0.176242069882E+03   -0.16461E-02   -0.78907E-02 11072   0.755E-01    0.181E-01
RMM:   2    -0.176242719793E+03   -0.64991E-03   -0.24099E-03 10884   0.163E-01    0.349E-01
RMM:   3    -0.176242197719E+03    0.52207E-03   -0.26122E-04 11214   0.491E-02    0.117E-01
RMM:   4    -0.176242285245E+03   -0.87526E-04   -0.14020E-04 11254   0.308E-02    0.161E-01
RMM:   5    -0.176242227455E+03    0.57790E-04   -0.11114E-04 11184   0.268E-02    0.128E-01
RMM:   6    -0.176242218415E+03    0.90405E-05   -0.63687E-05 11029   0.200E-02
  30 F= -.17624222E+03 E0= -.17624156E+03  d E =-.637859E-02  mag=     0.0000
 curvature:  -0.09 expect dE=-0.617E-02 dE for cont linesearch -0.402E-03
 ZBRENT: increasing intervall
 opt :   0.2463  next Energy=  -176.243066 (dE=-0.723E-02)
 bond charge predicted
       N       E                     dE             d eps       ncg     rms          rms(c)
DAV:   1    -0.176241534121E+03    0.69333E-03   -0.31560E-01 10880   0.151E+00    0.361E-01
RMM:   2    -0.176244564360E+03   -0.30302E-02   -0.96891E-03 10884   0.327E-01    0.751E-01
RMM:   3    -0.176242048773E+03    0.25156E-02   -0.10452E-03 11236   0.985E-02    0.234E-01
RMM:   4    -0.176242428961E+03   -0.38019E-03   -0.61146E-04 11190   0.642E-02    0.322E-01
RMM:   5    -0.176242111234E+03    0.31773E-03   -0.44819E-04 11162   0.538E-02    0.225E-01
RMM:   6    -0.176242171031E+03   -0.59797E-04   -0.25268E-04 11075   0.400E-02    0.234E-01
RMM:   7    -0.176241905072E+03    0.26596E-03   -0.10260E-04 11157   0.267E-02    0.414E-02
RMM:   8    -0.176241886135E+03    0.18937E-04   -0.23385E-05 12259   0.116E-02    0.167E-02
RMM:   9    -0.176241886914E+03   -0.77918E-06   -0.48709E-06 11456   0.605E-03
  31 F= -.17624189E+03 E0= -.17624130E+03  d E =-.604709E-02  mag=     0.0000
 curvature:  -0.18 expect dE=-0.222E-01 dE for cont linesearch -0.147E-03
 trial: gam= 1.61016 g(F)=  0.120E+00 g(S)=  0.395E-02 ort =-0.985E-02 (trialstep = 0.322E-01)
 search vector abs. value=  0.399E+00
 bond charge predicted
       N       E                     dE             d eps       ncg     rms          rms(c)
DAV:   1    -0.176244318787E+03   -0.24327E-02   -0.83286E-02 10992   0.785E-01    0.139E-01
RMM:   2    -0.176245398482E+03   -0.10797E-02   -0.27187E-03 10886   0.167E-01    0.462E-01
RMM:   3    -0.176244500026E+03    0.89846E-03   -0.23802E-04 11020   0.496E-02    0.181E-01
RMM:   4    -0.176244522982E+03   -0.22956E-04   -0.82680E-05 11958   0.234E-02    0.174E-01
RMM:   5    -0.176244487101E+03    0.35881E-04   -0.92951E-05 11380   0.245E-02    0.161E-01
RMM:   6    -0.176244448238E+03    0.38863E-04   -0.66284E-05 11249   0.208E-02    0.110E-01
RMM:   7    -0.176244396231E+03    0.52007E-04   -0.25404E-05 11190   0.135E-02    0.340E-02
RMM:   8    -0.176244389919E+03    0.63121E-05   -0.84906E-06 11500   0.688E-03
  32 F= -.17624439E+03 E0= -.17624380E+03  d E =-.250301E-02  mag=     0.0000
 trial-energy change:   -0.002503  1 .order   -0.002508   -0.003467   -0.001548
 step:   0.0581(harm=  0.0581)  dis= 0.00235  next Energy=  -176.245019 (dE=-0.313E-02)
 bond charge predicted
       N       E                     dE             d eps       ncg     rms          rms(c)
DAV:   1    -0.176245417171E+03   -0.10209E-02   -0.54106E-02 11168   0.633E-01    0.110E-01
RMM:   2    -0.176246123351E+03   -0.70618E-03   -0.17723E-03 10884   0.134E-01    0.374E-01
RMM:   3    -0.176245543215E+03    0.58014E-03   -0.15216E-04 11048   0.397E-02    0.152E-01
RMM:   4    -0.176245557872E+03   -0.14656E-04   -0.54426E-05 11899   0.190E-02    0.145E-01
RMM:   5    -0.176245538281E+03    0.19591E-04   -0.60139E-05 11372   0.197E-02    0.136E-01
RMM:   6    -0.176245506980E+03    0.31301E-04   -0.41677E-05 11240   0.165E-02    0.917E-02
RMM:   7    -0.176245470461E+03    0.36519E-04   -0.17445E-05 11180   0.111E-02    0.285E-02
RMM:   8    -0.176245465947E+03    0.45138E-05   -0.61162E-06 11503   0.563E-03
  33 F= -.17624547E+03 E0= -.17624488E+03  d E =-.357903E-02  mag=     0.0000
 curvature:  -0.11 expect dE=-0.137E-01 dE for cont linesearch -0.113E-03
 trial: gam= 0.32221 g(F)=  0.125E+00 g(S)=  0.292E-02 ort = 0.205E-01 (trialstep = 0.374E-01)
 search vector abs. value=  0.182E+00
 bond charge predicted
       N       E                     dE             d eps       ncg     rms          rms(c)
DAV:   1    -0.176249877695E+03   -0.44072E-02   -0.51660E-02 10960   0.575E-01    0.100E-01
RMM:   2    -0.176250364091E+03   -0.48640E-03   -0.15036E-03 10880   0.123E-01    0.311E-01
RMM:   3    -0.176249981438E+03    0.38265E-03   -0.16029E-04 11708   0.367E-02    0.114E-01
RMM:   4    -0.176250009540E+03   -0.28103E-04   -0.41196E-05 11855   0.158E-02    0.137E-01
RMM:   5    -0.176250009439E+03    0.10179E-06   -0.39087E-05 11166   0.158E-02
  34 F= -.17625001E+03 E0= -.17624946E+03  d E =-.454349E-02  mag=     0.0000
 ZBRENT: can't locate minimum, use default step
 trial-energy change:   -0.004543  1 .order   -0.004528   -0.005017   -0.004039
 step:   0.1495(harm=  0.1916)  dis= 0.00608  next Energy=  -176.258326 (dE=-0.129E-01)
 bond charge predicted
       N       E                     dE             d eps       ncg     rms          rms(c)
DAV:   1    -0.176256252440E+03   -0.62429E-02   -0.46447E-01 10880   0.173E+00    0.318E-01
RMM:   2    -0.176260227903E+03   -0.39755E-02   -0.12994E-02 10880   0.364E-01    0.838E-01
RMM:   3    -0.176257024676E+03    0.32032E-02   -0.14210E-03 11372   0.113E-01    0.254E-01
RMM:   4    -0.176257044210E+03   -0.19534E-04   -0.37855E-04 12061   0.477E-02    0.290E-01
RMM:   5    -0.176257094793E+03   -0.50582E-04   -0.25208E-04 11340   0.416E-02    0.242E-01
RMM:   6    -0.176256957967E+03    0.13683E-03   -0.26362E-04 11204   0.406E-02    0.190E-01
RMM:   7    -0.176256828692E+03    0.12928E-03   -0.93025E-05 11454   0.262E-02    0.989E-02
RMM:   8    -0.176256774325E+03    0.54367E-04   -0.33094E-05 11648   0.146E-02    0.277E-02
RMM:   9    -0.176256773199E+03    0.11259E-05   -0.74846E-06 11858   0.712E-03
  35 F= -.17625677E+03 E0= -.17625614E+03  d E =-.113073E-01  mag=     0.0000
 curvature:  -0.12 expect dE=-0.955E-02 dE for cont linesearch -0.978E-04
 trial: gam= 0.60528 g(F)=  0.757E-01 g(S)=  0.360E-02 ort = 0.122E-01 (trialstep = 0.598E-01)
 search vector abs. value=  0.161E+00
 bond charge predicted
       N       E                     dE             d eps       ncg     rms          rms(c)
DAV:   1    -0.176259921791E+03   -0.31475E-02   -0.11535E-01 10912   0.877E-01    0.136E-01
RMM:   2    -0.176260228428E+03   -0.30664E-03   -0.29562E-03 10882   0.175E-01    0.196E-01
RMM:   3    -0.176260153454E+03    0.74974E-04   -0.30063E-04 11813   0.510E-02    0.115E-01
RMM:   4    -0.176260140951E+03    0.12503E-04   -0.11695E-04 11242   0.270E-02    0.140E-01
RMM:   5    -0.176260099339E+03    0.41611E-04   -0.26923E-05 11880   0.135E-02    0.863E-02
RMM:   6    -0.176260102323E+03   -0.29840E-05   -0.51913E-05 11094   0.175E-02
  36 F= -.17626010E+03 E0= -.17625945E+03  d E =-.332912E-02  mag=     0.0000
 trial-energy change:   -0.003329  1 .order   -0.003452   -0.005185   -0.001719
 step:   0.1079(harm=  0.0894)  dis= 0.00359  next Energy=  -176.260729 (dE=-0.396E-02)
 bond charge predicted
       N       E                     dE             d eps       ncg     rms          rms(c)
DAV:   1    -0.176261344839E+03   -0.12455E-02   -0.74425E-02 10976   0.704E-01    0.119E-01
RMM:   2    -0.176261847688E+03   -0.50285E-03   -0.20063E-03 10884   0.141E-01    0.286E-01
RMM:   3    -0.176261465997E+03    0.38169E-03   -0.20362E-04 10997   0.447E-02    0.821E-02
RMM:   4    -0.176261504157E+03   -0.38160E-04   -0.84637E-05 11625   0.238E-02    0.133E-01
RMM:   5    -0.176261435251E+03    0.68906E-04   -0.26525E-05 11483   0.128E-02    0.407E-02
RMM:   6    -0.176261499726E+03   -0.64475E-04   -0.47119E-05 11100   0.165E-02    0.121E-01
RMM:   7    -0.176261434195E+03    0.65531E-04   -0.23740E-05 11038   0.121E-02    0.293E-02
RMM:   8    -0.176261430225E+03    0.39700E-05   -0.65453E-06 11102   0.676E-03
  37 F= -.17626143E+03 E0= -.17626087E+03  d E =-.465703E-02  mag=     0.0000
 curvature:  -0.05 expect dE=-0.574E-02 dE for cont linesearch -0.121E-03
 trial: gam= 0.85807 g(F)=  0.111E+00 g(S)=  0.135E-02 ort = 0.195E-01 (trialstep = 0.422E-01)
 search vector abs. value=  0.265E+00
 bond charge predicted
       N       E                     dE             d eps       ncg     rms          rms(c)
DAV:   1    -0.176266345347E+03   -0.49112E-02   -0.94382E-02 10912   0.770E-01    0.122E-01
RMM:   2    -0.176266531602E+03   -0.18625E-03   -0.22501E-03 10884   0.150E-01    0.120E-01
RMM:   3    -0.176266548853E+03   -0.17251E-04   -0.22858E-04 11482   0.453E-02    0.136E-01
RMM:   4    -0.176266485660E+03    0.63193E-04   -0.70213E-05 11370   0.206E-02    0.810E-02
RMM:   5    -0.176266481859E+03    0.38017E-05   -0.36491E-05 11275   0.153E-02
  38 F= -.17626648E+03 E0= -.17626593E+03  d E =-.505163E-02  mag=     0.0000
 ZBRENT: can't locate minimum, use default step
 trial-energy change:   -0.005052  1 .order   -0.005364   -0.005462   -0.005266
 step:   0.1688(harm=  1.1762)  dis= 0.01144  next Energy=  -176.337555 (dE=-0.761E-01)
 bond charge predicted
       N       E                     dE             d eps       ncg     rms          rms(c)
DAV:   1    -0.176279705742E+03   -0.13220E-01   -0.85057E-01 10880   0.231E+00    0.380E-01
RMM:   2    -0.176281618219E+03   -0.19125E-02   -0.20466E-02 10884   0.451E-01    0.420E-01
RMM:   3    -0.176281503090E+03    0.11513E-03   -0.20931E-03 11254   0.140E-01    0.417E-01
RMM:   4    -0.176281015128E+03    0.48796E-03   -0.68518E-04 11438   0.650E-02    0.257E-01
RMM:   5    -0.176280970162E+03    0.44966E-04   -0.39467E-04 11254   0.495E-02    0.244E-01
RMM:   6    -0.176280751698E+03    0.21846E-03   -0.30646E-04 10998   0.411E-02    0.116E-01
RMM:   7    -0.176280810034E+03   -0.58336E-04   -0.12752E-04 11306   0.282E-02    0.153E-01
RMM:   8    -0.176280700708E+03    0.10933E-03   -0.64087E-05 11297   0.206E-02    0.575E-02
RMM:   9    -0.176280681023E+03    0.19686E-04   -0.14431E-05 11711   0.101E-02    0.257E-02
RMM:  10    -0.176280677983E+03    0.30400E-05   -0.49491E-06 12550   0.482E-03
  39 F= -.17628068E+03 E0= -.17628031E+03  d E =-.192478E-01  mag=     0.0000
 curvature:  -0.25 expect dE=-0.518E-01 dE for cont linesearch -0.746E-02
 ZBRENT: increasing intervall
 opt :   0.4219  next Energy=  -176.293770 (dE=-0.323E-01)
 bond charge predicted
       N       E                     dE             d eps       ncg     rms          rms(c)
DAV:   1    -0.176264107301E+03    0.16574E-01   -0.34000E+00 10880   0.462E+00    0.738E-01
RMM:   2    -0.176270965033E+03   -0.68577E-02   -0.84776E-02 10886   0.935E-01    0.787E-01
RMM:   3    -0.176271003336E+03   -0.38303E-04   -0.89135E-03 11886   0.269E-01    0.747E-01
RMM:   4    -0.176269758038E+03    0.12453E-02   -0.26975E-03 11325   0.131E-01    0.542E-01
RMM:   5    -0.176269550146E+03    0.20789E-03   -0.15206E-03 11222   0.975E-02    0.515E-01
RMM:   6    -0.176268475972E+03    0.10742E-02   -0.11857E-03 11010   0.819E-02    0.170E-01
RMM:   7    -0.176268600015E+03   -0.12404E-03   -0.50216E-04 11501   0.567E-02    0.200E-01
RMM:   8    -0.176268332460E+03    0.26756E-03   -0.17106E-04 11598   0.332E-02    0.730E-02
RMM:   9    -0.176268322608E+03    0.98521E-05   -0.31929E-05 12593   0.142E-02
  40 F= -.17626832E+03 E0= -.17626829E+03  d E =-.689238E-02  mag=     0.0000
 curvature:  -0.44 expect dE=-0.189E+00 dE for cont linesearch -0.503E-01
 ZBRENT: bracketing found
 ZBRENT: interpolating
 opt :   0.2543  next Energy=  -176.284451 (dE=-0.230E-01)
 bond charge predicted
       N       E                     dE             d eps       ncg     rms          rms(c)
DAV:   1    -0.176281657482E+03   -0.13325E-01   -0.14904E+00 10880   0.305E+00    0.482E-01
RMM:   2    -0.176284404965E+03   -0.27475E-02   -0.35647E-02 10886   0.598E-01    0.487E-01
RMM:   3    -0.176284168150E+03    0.23681E-03   -0.33016E-03 11632   0.176E-01    0.443E-01
RMM:   4    -0.176283593030E+03    0.57512E-03   -0.97989E-04 11621   0.783E-02    0.277E-01
RMM:   5    -0.176283825895E+03   -0.23286E-03   -0.46841E-04 11380   0.563E-02    0.351E-01
RMM:   6    -0.176283300764E+03    0.52513E-03   -0.43748E-04 11038   0.513E-02    0.123E-01
RMM:   7    -0.176283369202E+03   -0.68438E-04   -0.20236E-04 11478   0.368E-02    0.144E-01
RMM:   8    -0.176283265311E+03    0.10389E-03   -0.79519E-05 11366   0.225E-02    0.793E-02
RMM:   9    -0.176283234281E+03    0.31030E-04   -0.20552E-05 11554   0.120E-02    0.303E-02
RMM:  10    -0.176283228705E+03    0.55762E-05   -0.91230E-06 11941   0.673E-03
  41 F= -.17628323E+03 E0= -.17628297E+03  d E =-.217985E-01  mag=     0.0000
 curvature:  -0.03 expect dE=-0.719E-02 dE for cont linesearch -0.813E-04
 ZBRENT: interpolating
 opt :   0.2352  next Energy=  -176.283471 (dE=-0.220E-01)
 bond charge predicted
       N       E                     dE             d eps       ncg     rms          rms(c)
DAV:   1    -0.176283453124E+03   -0.21884E-03   -0.19411E-02 11104   0.349E-01    0.590E-02
RMM:   2    -0.176283517752E+03   -0.64627E-04   -0.49510E-04 10886   0.700E-02    0.813E-02
RMM:   3    -0.176283501613E+03    0.16139E-04   -0.59152E-05 11116   0.231E-02    0.683E-02
RMM:   4    -0.176283488504E+03    0.13109E-04   -0.18464E-05 11354   0.110E-02    0.476E-02
RMM:   5    -0.176283480938E+03    0.75662E-05   -0.82304E-06 11180   0.714E-03
  42 F= -.17628348E+03 E0= -.17628318E+03  d E =-.220507E-01  mag=     0.0000
 curvature:  -0.10 expect dE=-0.209E-01 dE for cont linesearch -0.388E-05
 trial: gam= 1.68199 g(F)=  0.207E+00 g(S)=  0.263E-02 ort = 0.321E-02 (trialstep = 0.221E-01)
 search vector abs. value=  0.969E+00
 bond charge predicted
       N       E                     dE             d eps       ncg     rms          rms(c)
DAV:   1    -0.176287296080E+03   -0.38076E-02   -0.94580E-02 10912   0.771E-01    0.114E-01
RMM:   2    -0.176287683742E+03   -0.38766E-03   -0.22364E-03 10884   0.149E-01    0.244E-01
RMM:   3    -0.176287439984E+03    0.24376E-03   -0.22005E-04 11210   0.445E-02    0.788E-02
RMM:   4    -0.176287465391E+03   -0.25407E-04   -0.87162E-05 11436   0.235E-02    0.128E-01
RMM:   5    -0.176287411058E+03    0.54333E-04   -0.40644E-05 11570   0.160E-02    0.690E-02
RMM:   6    -0.176287410731E+03    0.32664E-06   -0.32130E-05 11222   0.133E-02
  43 F= -.17628741E+03 E0= -.17628719E+03  d E =-.392979E-02  mag=     0.0000
 trial-energy change:   -0.003930  1 .order   -0.004067   -0.004741   -0.003393
 step:   0.0776(harm=  0.0776)  dis= 0.00814  next Energy=  -176.291819 (dE=-0.834E-02)
 bond charge predicted
       N       E                     dE             d eps       ncg     rms          rms(c)
DAV:   1    -0.176288241255E+03   -0.83020E-03   -0.59442E-01 10880   0.193E+00    0.307E-01
RMM:   2    -0.176290353996E+03   -0.21127E-02   -0.13866E-02 10882   0.370E-01    0.532E-01
RMM:   3    -0.176289257172E+03    0.10968E-02   -0.13660E-03 11180   0.114E-01    0.208E-01
RMM:   4    -0.176289458414E+03   -0.20124E-03   -0.62965E-04 11474   0.622E-02    0.335E-01
RMM:   5    -0.176289054485E+03    0.40393E-03   -0.25220E-04 11676   0.399E-02    0.153E-01
RMM:   6    -0.176289066606E+03   -0.12121E-04   -0.20150E-04 11332   0.325E-02    0.149E-01
RMM:   7    -0.176288987876E+03    0.78730E-04   -0.86447E-05 11412   0.221E-02    0.765E-02
RMM:   8    -0.176288953899E+03    0.33977E-04   -0.25291E-05 11988   0.127E-02    0.227E-02
RMM:   9    -0.176288951975E+03    0.19232E-05   -0.58272E-06 12332   0.611E-03
  44 F= -.17628895E+03 E0= -.17628889E+03  d E =-.547104E-02  mag=     0.0000
 curvature:  -0.17 expect dE=-0.384E-01 dE for cont linesearch -0.125E-02
 ZBRENT: interpolating
 opt :   0.0581  next Energy=  -176.289764 (dE=-0.628E-02)
 bond charge predicted
       N       E                     dE             d eps       ncg     rms          rms(c)
DAV:   1    -0.176289728845E+03   -0.77495E-03   -0.73203E-02 10880   0.678E-01    0.107E-01
RMM:   2    -0.176290143138E+03   -0.41429E-03   -0.17664E-03 10882   0.131E-01    0.254E-01
RMM:   3    -0.176289835829E+03    0.30731E-03   -0.18190E-04 11116   0.408E-02    0.695E-02
RMM:   4    -0.176289858886E+03   -0.23057E-04   -0.76301E-05 11378   0.219E-02    0.113E-01
RMM:   5    -0.176289814541E+03    0.44345E-04   -0.35240E-05 11378   0.149E-02    0.559E-02
RMM:   6    -0.176289824146E+03   -0.96051E-05   -0.28137E-05 11114   0.126E-02
  45 F= -.17628982E+03 E0= -.17628970E+03  d E =-.634321E-02  mag=     0.0000
 curvature:  -0.11 expect dE=-0.196E-01 dE for cont linesearch -0.414E-06
 trial: gam= 0.14435 g(F)=  0.167E+00 g(S)=  0.559E-02 ort = 0.188E-02 (trialstep = 0.293E-01)
 search vector abs. value=  0.193E+00
 bond charge predicted
       N       E                     dE             d eps       ncg     rms          rms(c)
DAV:   1    -0.176294045307E+03   -0.42308E-02   -0.33905E-02 11056   0.443E-01    0.103E-01
RMM:   2    -0.176294516960E+03   -0.47165E-03   -0.10402E-03 10930   0.103E-01    0.297E-01
RMM:   3    -0.176294106475E+03    0.41048E-03   -0.11777E-04 11118   0.319E-02    0.850E-02
RMM:   4    -0.176294109293E+03   -0.28189E-05   -0.61099E-05 11064   0.201E-02
  46 F= -.17629411E+03 E0= -.17629406E+03  d E =-.428515E-02  mag=     0.0000
 ZBRENT: can't locate minimum, use default step
 trial-energy change:   -0.004285  1 .order   -0.004421   -0.005049   -0.003793
 step:   0.1171(harm=  0.1177)  dis= 0.00297  next Energy=  -176.299973 (dE=-0.101E-01)
 bond charge predicted
       N       E                     dE             d eps       ncg     rms          rms(c)
DAV:   1    -0.176299796717E+03   -0.56902E-02   -0.30411E-01 10880   0.132E+00    0.338E-01
RMM:   2    -0.176302713589E+03   -0.29169E-02   -0.86128E-03 10892   0.299E-01    0.758E-01
RMM:   3    -0.176300302518E+03    0.24111E-02   -0.95933E-04 11428   0.893E-02    0.236E-01
RMM:   4    -0.176300365510E+03   -0.62992E-04   -0.55714E-04 11316   0.574E-02    0.242E-01
RMM:   5    -0.176300535305E+03   -0.16979E-03   -0.37976E-04 10976   0.480E-02    0.303E-01
RMM:   6    -0.176300183354E+03    0.35195E-03   -0.21664E-04 10972   0.379E-02    0.130E-01
RMM:   7    -0.176300122669E+03    0.60685E-04   -0.93390E-05 11242   0.258E-02    0.683E-02
RMM:   8    -0.176300099201E+03    0.23468E-04   -0.28972E-05 11240   0.136E-02    0.463E-02
RMM:   9    -0.176300090551E+03    0.86501E-05   -0.59857E-06 11318   0.656E-03
  47 F= -.17630009E+03 E0= -.17630005E+03  d E =-.102664E-01  mag=     0.0000
 curvature:  -0.07 expect dE=-0.369E-02 dE for cont linesearch -0.636E-04
 ZBRENT: extrapolating
 opt :   0.1274  next Energy=  -176.300161 (dE=-0.103E-01)
 bond charge predicted
       N       E                     dE             d eps       ncg     rms          rms(c)
DAV:   1    -0.176300135449E+03   -0.36248E-04   -0.42027E-03 11520   0.156E-01    0.429E-02
RMM:   2    -0.176300170702E+03   -0.35253E-04   -0.13358E-04 10880   0.362E-02    0.758E-02
RMM:   3    -0.176300145405E+03    0.25297E-04   -0.19807E-05 10956   0.129E-02    0.297E-02
RMM:   4    -0.176300153208E+03   -0.78033E-05   -0.11540E-05 10852   0.844E-03
  48 F= -.17630015E+03 E0= -.17630010E+03  d E =-.103291E-01  mag=     0.0000
 curvature:  -0.07 expect dE=-0.465E-02 dE for cont linesearch -0.433E-06
 trial: gam= 0.40581 g(F)=  0.596E-01 g(S)=  0.412E-02 ort = 0.107E-02 (trialstep = 0.489E-01)
 search vector abs. value=  0.963E-01
 bond charge predicted
       N       E                     dE             d eps       ncg     rms          rms(c)
DAV:   1    -0.176302917083E+03   -0.27717E-02   -0.45614E-02 10880   0.564E-01    0.118E-01
RMM:   2    -0.176303234631E+03   -0.31755E-03   -0.13689E-03 10880   0.121E-01    0.248E-01
RMM:   3    -0.176302977038E+03    0.25759E-03   -0.14730E-04 11284   0.356E-02    0.700E-02
RMM:   4    -0.176303043854E+03   -0.66816E-04   -0.93510E-05 11254   0.249E-02    0.137E-01
RMM:   5    -0.176302957763E+03    0.86091E-04   -0.37318E-05 11224   0.159E-02    0.434E-02
RMM:   6    -0.176302968472E+03   -0.10709E-04   -0.27916E-05 11240   0.132E-02    0.643E-02
RMM:   7    -0.176302949749E+03    0.18723E-04   -0.10416E-05 11292   0.809E-03    0.213E-02
RMM:   8    -0.176302948289E+03    0.14597E-05   -0.39050E-06 11088   0.514E-03
  49 F= -.17630295E+03 E0= -.17630294E+03  d E =-.279508E-02  mag=     0.0000
 trial-energy change:   -0.002795  1 .order   -0.002697   -0.003135   -0.002258
 step:   0.1014(harm=  0.1748)  dis= 0.00169  next Energy=  -176.304284 (dE=-0.413E-02)
 bond charge predicted
       N       E                     dE             d eps       ncg     rms          rms(c)
DAV:   1    -0.176305036482E+03   -0.20867E-02   -0.52623E-02 10880   0.605E-01    0.123E-01
RMM:   2    -0.176305321877E+03   -0.28539E-03   -0.15192E-03 10880   0.129E-01    0.232E-01
RMM:   3    -0.176305111645E+03    0.21023E-03   -0.16619E-04 11670   0.369E-02    0.698E-02
RMM:   4    -0.176305169131E+03   -0.57486E-04   -0.85216E-05 11300   0.238E-02    0.133E-01
RMM:   5    -0.176305094462E+03    0.74669E-04   -0.34240E-05 11266   0.151E-02    0.498E-02
RMM:   6    -0.176305104827E+03   -0.10365E-04   -0.28956E-05 11270   0.134E-02    0.668E-02
RMM:   7    -0.176305084864E+03    0.19963E-04   -0.10602E-05 11346   0.819E-03    0.212E-02
RMM:   8    -0.176305083429E+03    0.14349E-05   -0.40351E-06 11180   0.524E-03
  50 F= -.17630508E+03 E0= -.17630509E+03  d E =-.493022E-02  mag=     0.0000
 curvature:  -0.09 expect dE=-0.270E-02 dE for cont linesearch -0.117E-02
 ZBRENT: increasing intervall
 opt :   0.2065  next Energy=  -176.307802 (dE=-0.765E-02)
 bond charge predicted
       N       E                     dE             d eps       ncg     rms          rms(c)
DAV:   1    -0.176306127939E+03   -0.10431E-02   -0.21037E-01 10880   0.121E+00    0.247E-01
RMM:   2    -0.176307340887E+03   -0.12129E-02   -0.61274E-03 10880   0.258E-01    0.478E-01
RMM:   3    -0.176306428327E+03    0.91256E-03   -0.66700E-04 11554   0.746E-02    0.141E-01
RMM:   4    -0.176306668181E+03   -0.23985E-03   -0.35051E-04 11295   0.484E-02    0.268E-01
RMM:   5    -0.176306354809E+03    0.31337E-03   -0.14488E-04 11282   0.312E-02    0.966E-02
RMM:   6    -0.176306404574E+03   -0.49765E-04   -0.11679E-04 11262   0.271E-02    0.138E-01
RMM:   7    -0.176306318001E+03    0.86573E-04   -0.44233E-05 11424   0.167E-02    0.418E-02
RMM:   8    -0.176306313480E+03    0.45204E-05   -0.16157E-05 11642   0.106E-02
  51 F= -.17630631E+03 E0= -.17630636E+03  d E =-.616027E-02  mag=     0.0000
 curvature:  -0.20 expect dE=-0.149E-01 dE for cont linesearch -0.418E-03
 ZBRENT: bracketing found
 ZBRENT: interpolating
 opt :   0.1769  next Energy=  -176.306523 (dE=-0.637E-02)
 bond charge predicted
       N       E                     dE             d eps       ncg     rms          rms(c)
DAV:   1    -0.176306420258E+03   -0.10226E-03   -0.16747E-02 10912   0.342E-01    0.710E-02
RMM:   2    -0.176306617545E+03   -0.19729E-03   -0.53804E-04 10882   0.753E-02    0.196E-01
RMM:   3    -0.176306439658E+03    0.17789E-03   -0.63274E-05 11052   0.237E-02    0.458E-02
RMM:   4    -0.176306455230E+03   -0.15572E-04   -0.31671E-05 11122   0.148E-02    0.755E-02
RMM:   5    -0.176306428205E+03    0.27025E-04   -0.14212E-05 11042   0.996E-03    0.250E-02
RMM:   6    -0.176306434597E+03   -0.63920E-05   -0.98419E-06 11038   0.801E-03
  52 F= -.17630643E+03 E0= -.17630647E+03  d E =-.628139E-02  mag=     0.0000
 curvature:  -0.10 expect dE=-0.547E-02 dE for cont linesearch -0.169E-06
 trial: gam= 0.88078 g(F)=  0.521E-01 g(S)=  0.215E-02 ort = 0.401E-03 (trialstep = 0.553E-01)
 search vector abs. value=  0.130E+00
 bond charge predicted
       N       E                     dE             d eps       ncg     rms          rms(c)
DAV:   1    -0.176308514335E+03   -0.20861E-02   -0.75029E-02 10880   0.754E-01    0.143E-01
RMM:   2    -0.176308720379E+03   -0.20604E-03   -0.21255E-03 10880   0.152E-01    0.181E-01
RMM:   3    -0.176308661597E+03    0.58782E-04   -0.25700E-04 11116   0.479E-02    0.126E-01
RMM:   4    -0.176308692444E+03   -0.30847E-04   -0.12783E-04 11248   0.282E-02    0.154E-01
RMM:   5    -0.176308586606E+03    0.10584E-03   -0.58460E-05 11242   0.200E-02    0.699E-02
RMM:   6    -0.176308582848E+03    0.37575E-05   -0.31431E-05 11396   0.141E-02
  53 F= -.17630858E+03 E0= -.17630864E+03  d E =-.214825E-02  mag=     0.0000
 trial-energy change:   -0.002148  1 .order   -0.002234   -0.003022   -0.001446
 step:   0.1062(harm=  0.1062)  dis= 0.00207  next Energy=  -176.309333 (dE=-0.290E-02)
 bond charge predicted
       N       E                     dE             d eps       ncg     rms          rms(c)
DAV:   1    -0.176309517415E+03   -0.93081E-03   -0.63090E-02 10880   0.692E-01    0.134E-01
RMM:   2    -0.176309826260E+03   -0.30885E-03   -0.18192E-03 10880   0.140E-01    0.222E-01
RMM:   3    -0.176309623617E+03    0.20264E-03   -0.22563E-04 11322   0.441E-02    0.974E-02
RMM:   4    -0.176309656265E+03   -0.32648E-04   -0.95285E-05 11430   0.253E-02    0.132E-01
RMM:   5    -0.176309584877E+03    0.71388E-04   -0.46960E-05 11382   0.177E-02    0.617E-02
RMM:   6    -0.176309602087E+03   -0.17209E-04   -0.30128E-05 11378   0.137E-02    0.828E-02
RMM:   7    -0.176309570434E+03    0.31653E-04   -0.16483E-05 11312   0.105E-02    0.282E-02
RMM:   8    -0.176309567440E+03    0.29940E-05   -0.47364E-06 11440   0.583E-03
  54 F= -.17630957E+03 E0= -.17630970E+03  d E =-.313284E-02  mag=     0.0000
 curvature:  -0.13 expect dE=-0.658E-02 dE for cont linesearch -0.287E-04
 trial: gam= 0.60778 g(F)=  0.507E-01 g(S)=  0.153E-02 ort = 0.544E-02 (trialstep = 0.655E-01)
 search vector abs. value=  0.107E+00
 bond charge predicted
       N       E                     dE             d eps       ncg     rms          rms(c)
DAV:   1    -0.176312057341E+03   -0.24869E-02   -0.87982E-02 10880   0.795E-01    0.123E-01
RMM:   2    -0.176312420747E+03   -0.36341E-03   -0.23876E-03 10880   0.160E-01    0.241E-01
RMM:   3    -0.176312205846E+03    0.21490E-03   -0.25568E-04 11208   0.484E-02    0.957E-02
RMM:   4    -0.176312212129E+03   -0.62830E-05   -0.88480E-05 11734   0.234E-02
  55 F= -.17631221E+03 E0= -.17631238E+03  d E =-.264469E-02  mag=     0.0000
 trial-energy change:   -0.002645  1 .order   -0.002385   -0.003637   -0.001132
 step:   0.0821(harm=  0.0951)  dis= 0.00201  next Energy=  -176.312360 (dE=-0.279E-02)
 bond charge predicted
       N       E                     dE             d eps       ncg     rms          rms(c)
DAV:   1    -0.176312361265E+03   -0.15542E-03   -0.57949E-03 11520   0.212E-01    0.900E-02
RMM:   2    -0.176312706731E+03   -0.34547E-03   -0.40205E-04 10880   0.589E-02    0.257E-01
RMM:   3    -0.176312363106E+03    0.34363E-03   -0.13296E-04 10884   0.310E-02    0.783E-02
RMM:   4    -0.176312350104E+03    0.13002E-04   -0.29828E-05 11410   0.144E-02    0.704E-02
RMM:   5    -0.176312337940E+03    0.12164E-04   -0.16924E-05 11686   0.981E-03    0.402E-02
RMM:   6    -0.176312345733E+03   -0.77933E-05   -0.12539E-05 11162   0.889E-03
  56 F= -.17631235E+03 E0= -.17631254E+03  d E =-.277829E-02  mag=     0.0000
 curvature:  -0.07 expect dE=-0.195E-02 dE for cont linesearch -0.330E-04
 ZBRENT: increasing intervall
 opt :   0.1154  next Energy=  -176.312230 (dE=-0.266E-02)
 bond charge predicted
       N       E                     dE             d eps       ncg     rms          rms(c)
DAV:   1    -0.176312569488E+03   -0.23155E-03   -0.22581E-02 10880   0.403E-01    0.616E-02
RMM:   2    -0.176312725400E+03   -0.15591E-03   -0.63732E-04 10880   0.813E-02    0.159E-01
RMM:   3    -0.176312605781E+03    0.11962E-03   -0.69253E-05 11056   0.255E-02    0.418E-02
RMM:   4    -0.176312607466E+03   -0.16854E-05   -0.23877E-05 12090   0.119E-02
  57 F= -.17631261E+03 E0= -.17631282E+03  d E =-.304003E-02  mag=     0.0000
 curvature:   0.26 expect dE= 0.111E-01 dE for cont linesearch  0.945E-04
 trial: gam= 0.54685 g(F)=  0.425E-01 g(S)=  0.195E-03 ort = 0.624E-02 (trialstep = 0.755E-01)
 search vector abs. value=  0.814E-01
 bond charge predicted
       N       E                     dE             d eps       ncg     rms          rms(c)
DAV:   1    -0.176314305261E+03   -0.16995E-02   -0.94048E-02 10880   0.814E-01    0.140E-01
RMM:   2    -0.176315023623E+03   -0.71836E-03   -0.25919E-03 10880   0.160E-01    0.344E-01
RMM:   3    -0.176314462461E+03    0.56116E-03   -0.25025E-04 11076   0.493E-02    0.105E-01
RMM:   4    -0.176314509668E+03   -0.47207E-04   -0.13160E-04 11764   0.283E-02    0.141E-01
RMM:   5    -0.176314449794E+03    0.59873E-04   -0.73268E-05 11541   0.211E-02    0.882E-02
RMM:   6    -0.176314469702E+03   -0.19908E-04   -0.54550E-05 11391   0.187E-02    0.960E-02
RMM:   7    -0.176314428250E+03    0.41452E-04   -0.35768E-05 11268   0.147E-02    0.459E-02
RMM:   8    -0.176314418682E+03    0.95687E-05   -0.80177E-06 11287   0.772E-03
  58 F= -.17631442E+03 E0= -.17631464E+03  d E =-.181122E-02  mag=     0.0000
 trial-energy change:   -0.001811  1 .order   -0.001887   -0.003479   -0.000295
 step:   0.0838(harm=  0.0825)  dis= 0.00167  next Energy=  -176.314435 (dE=-0.183E-02)
 bond charge predicted
       N       E                     dE             d eps       ncg     rms          rms(c)
DAV:   1    -0.176314423884E+03    0.43663E-05   -0.11401E-03 11552   0.908E-02    0.178E-02
RMM:   2    -0.176314436624E+03   -0.12740E-04   -0.35150E-05 10898   0.183E-02    0.452E-02
RMM:   3    -0.176314426312E+03    0.10311E-04   -0.42892E-06 10854   0.631E-03    0.115E-02
RMM:   4    -0.176314426499E+03   -0.18624E-06   -0.15018E-06 11818   0.275E-03
  59 F= -.17631443E+03 E0= -.17631466E+03  d E =-.181903E-02  mag=     0.0000
 curvature:  -0.07 expect dE=-0.159E-02 dE for cont linesearch -0.141E-05
 trial: gam= 0.46234 g(F)=  0.215E-01 g(S)=  0.112E-02 ort =-0.128E-02 (trialstep = 0.771E-01)
 search vector abs. value=  0.388E-01
 bond charge predicted
       N       E                     dE             d eps       ncg     rms          rms(c)
DAV:   1    -0.176315605056E+03   -0.11787E-02   -0.47059E-02 10880   0.616E-01    0.895E-02
RMM:   2    -0.176315770604E+03   -0.16555E-03   -0.14059E-03 10880   0.119E-01    0.138E-01
RMM:   3    -0.176315690242E+03    0.80362E-04   -0.12306E-04 11474   0.348E-02    0.666E-02
RMM:   4    -0.176315710753E+03   -0.20511E-04   -0.46534E-05 11644   0.174E-02    0.947E-02
RMM:   5    -0.176315676570E+03    0.34183E-04   -0.26975E-05 11460   0.133E-02    0.488E-02
RMM:   6    -0.176315678187E+03   -0.16168E-05   -0.15921E-05 11590   0.962E-03
  60 F= -.17631568E+03 E0= -.17631589E+03  d E =-.125169E-02  mag=     0.0000
 trial-energy change:   -0.001252  1 .order   -0.001288   -0.001699   -0.000876
 step:   0.1593(harm=  0.1593)  dis= 0.00150  next Energy=  -176.316181 (dE=-0.175E-02)
 bond charge predicted
       N       E                     dE             d eps       ncg     rms          rms(c)
DAV:   1    -0.176316301061E+03   -0.62449E-03   -0.53338E-02 10880   0.656E-01    0.947E-02
RMM:   2    -0.176316436594E+03   -0.13553E-03   -0.15235E-03 10880   0.125E-01    0.117E-01
RMM:   3    -0.176316408470E+03    0.28124E-04   -0.13252E-04 11958   0.354E-02    0.743E-02
RMM:   4    -0.176316423639E+03   -0.15169E-04   -0.45283E-05 11614   0.175E-02    0.931E-02
RMM:   5    -0.176316392231E+03    0.31408E-04   -0.30670E-05 11570   0.143E-02    0.584E-02
RMM:   6    -0.176316387219E+03    0.50126E-05   -0.13913E-05 11766   0.891E-03
  61 F= -.17631639E+03 E0= -.17631662E+03  d E =-.196072E-02  mag=     0.0000
 curvature:  -0.14 expect dE=-0.525E-02 dE for cont linesearch -0.247E-04
 trial: gam= 1.56464 g(F)=  0.357E-01 g(S)=  0.166E-02 ort = 0.261E-02 (trialstep = 0.258E-01)
 search vector abs. value=  0.141E+00
 bond charge predicted
       N       E                     dE             d eps       ncg     rms          rms(c)
DAV:   1    -0.176317284599E+03   -0.89237E-03   -0.18676E-02 10912   0.393E-01    0.686E-02
RMM:   2    -0.176317394146E+03   -0.10955E-03   -0.57167E-04 10880   0.743E-02    0.124E-01
RMM:   3    -0.176317327477E+03    0.66669E-04   -0.71202E-05 11180   0.251E-02    0.610E-02
RMM:   4    -0.176317311833E+03    0.15643E-04   -0.18823E-05 11590   0.110E-02    0.351E-02
RMM:   5    -0.176317312601E+03   -0.76776E-06   -0.85634E-06 11536   0.757E-03
  62 F= -.17631731E+03 E0= -.17631757E+03  d E =-.925382E-03  mag=     0.0000
 trial-energy change:   -0.000925  1 .order   -0.000914   -0.001071   -0.000758
 step:   0.0884(harm=  0.0884)  dis= 0.00180  next Energy=  -176.318219 (dE=-0.183E-02)
 bond charge predicted
       N       E                     dE             d eps       ncg     rms          rms(c)
DAV:   1    -0.176318010301E+03   -0.69847E-03   -0.10946E-01 10880   0.951E-01    0.151E-01
RMM:   2    -0.176318242132E+03   -0.23183E-03   -0.31426E-03 10880   0.174E-01    0.133E-01
RMM:   3    -0.176318380606E+03   -0.13847E-03   -0.35029E-04 11294   0.583E-02    0.202E-01
RMM:   4    -0.176318200924E+03    0.17968E-03   -0.11317E-04 11418   0.277E-02    0.873E-02
RMM:   5    -0.176318180247E+03    0.20676E-04   -0.70154E-05 11428   0.218E-02    0.813E-02
RMM:   6    -0.176318158115E+03    0.22132E-04   -0.25811E-05 11844   0.124E-02    0.445E-02
RMM:   7    -0.176318153547E+03    0.45680E-05   -0.91324E-06 11997   0.779E-03
  63 F= -.17631815E+03 E0= -.17631841E+03  d E =-.176633E-02  mag=     0.0000
 curvature:  -0.15 expect dE=-0.627E-02 dE for cont linesearch -0.125E-06
 trial: gam= 0.65507 g(F)=  0.408E-01 g(S)=  0.103E-02 ort = 0.343E-03 (trialstep = 0.384E-01)
 search vector abs. value=  0.103E+00
 bond charge predicted
       N       E                     dE             d eps       ncg     rms          rms(c)
DAV:   1    -0.176319418358E+03   -0.12602E-02   -0.29945E-02 10944   0.483E-01    0.640E-02
RMM:   2    -0.176319517915E+03   -0.99557E-04   -0.80131E-04 10882   0.882E-02    0.106E-01
RMM:   3    -0.176319481191E+03    0.36724E-04   -0.68546E-05 11238   0.269E-02    0.570E-02
RMM:   4    -0.176319478326E+03    0.28655E-05   -0.18951E-05 12310   0.108E-02
  64 F= -.17631948E+03 E0= -.17631977E+03  d E =-.132478E-02  mag=     0.0000
 trial-energy change:   -0.001325  1 .order   -0.001331   -0.001613   -0.001049
 step:   0.1098(harm=  0.1098)  dis= 0.00197  next Energy=  -176.320461 (dE=-0.231E-02)
 bond charge predicted
       N       E                     dE             d eps       ncg     rms          rms(c)
DAV:   1    -0.176319971455E+03   -0.49026E-03   -0.10387E-01 10880   0.899E-01    0.131E-01
RMM:   2    -0.176320394478E+03   -0.42302E-03   -0.27752E-03 10884   0.164E-01    0.230E-01
RMM:   3    -0.176320187710E+03    0.20677E-03   -0.26563E-04 11114   0.525E-02    0.122E-01
RMM:   4    -0.176320147417E+03    0.40293E-04   -0.74148E-05 12330   0.214E-02    0.830E-02
RMM:   5    -0.176320149322E+03   -0.19049E-05   -0.46361E-05 11782   0.171E-02
  65 F= -.17632015E+03 E0= -.17632049E+03  d E =-.199577E-02  mag=     0.0000
 curvature:  -0.13 expect dE=-0.521E-02 dE for cont linesearch -0.117E-04
 trial: gam= 0.93317 g(F)=  0.379E-01 g(S)=  0.998E-03 ort =-0.300E-02 (trialstep = 0.440E-01)
 search vector abs. value=  0.123E+00
 bond charge predicted
       N       E                     dE             d eps       ncg     rms          rms(c)
DAV:   1    -0.176321254221E+03   -0.11068E-02   -0.46711E-02 10912   0.613E-01    0.121E-01
RMM:   2    -0.176322953728E+03   -0.16995E-02   -0.19550E-03 10880   0.132E-01    0.542E-01
RMM:   3    -0.176321328454E+03    0.16253E-02   -0.40520E-04 10886   0.560E-02    0.815E-02
RMM:   4    -0.176321278668E+03    0.49786E-04   -0.56193E-05 12316   0.198E-02    0.591E-02
RMM:   5    -0.176321292761E+03   -0.14093E-04   -0.35491E-05 11720   0.142E-02    0.849E-02
RMM:   6    -0.176321294800E+03   -0.20390E-05   -0.25106E-05 11402   0.127E-02
  66 F= -.17632129E+03 E0= -.17632164E+03  d E =-.114548E-02  mag=     0.0000
 trial-energy change:   -0.001145  1 .order   -0.001238   -0.001590   -0.000887
 step:   0.0997(harm=  0.0997)  dis= 0.00224  next Energy=  -176.321948 (dE=-0.180E-02)
 bond charge predicted
       N       E                     dE             d eps       ncg     rms          rms(c)
DAV:   1    -0.176321716697E+03   -0.42394E-03   -0.74641E-02 10880   0.772E-01    0.103E-01
RMM:   2    -0.176322171497E+03   -0.45480E-03   -0.20868E-03 10880   0.142E-01    0.270E-01
RMM:   3    -0.176321844251E+03    0.32725E-03   -0.16229E-04 11042   0.417E-02    0.843E-02
RMM:   4    -0.176321864891E+03   -0.20640E-04   -0.60964E-05 12146   0.196E-02    0.104E-01
RMM:   5    -0.176321837868E+03    0.27023E-04   -0.38116E-05 11704   0.155E-02    0.785E-02
RMM:   6    -0.176321855932E+03   -0.18064E-04   -0.33717E-05 11458   0.146E-02    0.811E-02
RMM:   7    -0.176321821682E+03    0.34250E-04   -0.21629E-05 11314   0.118E-02    0.315E-02
RMM:   8    -0.176321817066E+03    0.46160E-05   -0.57846E-06 11352   0.631E-03
  67 F= -.17632182E+03 E0= -.17632221E+03  d E =-.166774E-02  mag=     0.0000
 curvature:  -0.17 expect dE=-0.508E-02 dE for cont linesearch -0.176E-04
 trial: gam= 0.43589 g(F)=  0.284E-01 g(S)=  0.162E-02 ort = 0.357E-02 (trialstep = 0.552E-01)
 search vector abs. value=  0.564E-01
 bond charge predicted
       N       E                     dE             d eps       ncg     rms          rms(c)
DAV:   1    -0.176323072584E+03   -0.12509E-02   -0.35131E-02 11008   0.507E-01    0.795E-02
RMM:   2    -0.176323212665E+03   -0.14008E-03   -0.94665E-04 10880   0.974E-02    0.143E-01
RMM:   3    -0.176323134835E+03    0.77830E-04   -0.88940E-05 11760   0.279E-02    0.576E-02
RMM:   4    -0.176323148680E+03   -0.13845E-04   -0.31104E-05 11680   0.143E-02    0.676E-02
RMM:   5    -0.176323144545E+03    0.41345E-05   -0.34355E-05 11356   0.147E-02
[...]
 trial-energy change:   -0.000001  1 .order   -0.000004   -0.000008    0.000000
 step:   0.0151(harm=  0.0151)  dis= 0.00006  next Energy=  -176.393269 (dE=-0.395E-05)
 bond charge predicted
       N       E                     dE             d eps       ncg     rms          rms(c)
DAV:   1    -0.176393265097E+03   -0.10342E-06   -0.12326E-06 10400   0.655E-03    0.453E-03
RMM:   2    -0.176393267444E+03   -0.23470E-05   -0.94077E-07  9276   0.306E-03
 346 F= -.17639327E+03 E0= -.17639650E+03  d E =-.273977E-05  mag=    -0.0000
 curvature:  -0.01 expect dE=-0.127E-05 dE for cont linesearch -0.956E-09
 trial: gam= 0.33595 g(F)=  0.162E-03 g(S)=  0.604E-05 ort =-0.816E-05 (trialstep = 0.153E-01)
 search vector abs. value=  0.222E-03
 bond charge predicted
       N       E                     dE             d eps       ncg     rms          rms(c)
DAV:   1    -0.176393267385E+03   -0.22876E-05   -0.14650E-05 12832   0.134E-02    0.286E-03
RMM:   2    -0.176393267515E+03   -0.13009E-06   -0.90927E-07 10036   0.283E-03
 347 F= -.17639327E+03 E0= -.17639651E+03  d E =-.707569E-07  mag=    -0.0000
 ZBRENT: can't locate minimum, use default step
 trial-energy change:   -0.000000  1 .order   -0.000002   -0.000003   -0.000002
 step:   0.0613(harm=  0.1129)  dis= 0.00010  next Energy=  -176.393277 (dE=-0.933E-05)
 bond charge predicted
       N       E                     dE             d eps       ncg     rms          rms(c)
DAV:   1    -0.176393273009E+03   -0.56238E-05   -0.11322E-04 10880   0.305E-02    0.650E-03
RMM:   2    -0.176393273777E+03   -0.76870E-06   -0.37273E-06 10880   0.591E-03
 348 F= -.17639327E+03 E0= -.17639651E+03  d E =-.633315E-05  mag=    -0.0000
 curvature:  -0.05 expect dE=-0.831E-05 dE for cont linesearch -0.182E-05
 ZBRENT: increasing intervall
 opt :   0.1533  next Energy=  -176.393276 (dE=-0.901E-05)
 bond charge predicted
       N       E                     dE             d eps       ncg     rms          rms(c)
DAV:   1    -0.176393278945E+03   -0.59369E-05   -0.45610E-04 10880   0.612E-02    0.144E-02
RMM:   2    -0.176393285292E+03   -0.63469E-05   -0.16382E-05 10880   0.127E-02
 349 F= -.17639329E+03 E0= -.17639652E+03  d E =-.178482E-04  mag=    -0.0000
 curvature:  -0.08 expect dE=-0.273E-04 dE for cont linesearch -0.206E-09
 trial: gam= 1.81813 g(F)=  0.334E-03 g(S)=  0.634E-05 ort =-0.755E-06 (trialstep = 0.889E-02)
 search vector abs. value=  0.107E-02
 bond charge predicted
       N       E                     dE             d eps       ncg     rms          rms(c)
DAV:   1    -0.176393281885E+03   -0.29399E-05   -0.34477E-05 14160   0.212E-02    0.107E-02
RMM:   2    -0.176393284780E+03   -0.28948E-05   -0.31325E-06 10880   0.575E-03
 350 F= -.17639328E+03 E0= -.17639651E+03  d E =0.512135E-06  mag=    -0.0000
 ZBRENT: can't locate minimum, use default step
 trial-energy change:    0.000001  1 .order   -0.000003   -0.000003   -0.000003
 step:   0.0356(harm=  0.6407)  dis= 0.00015  next Energy=  -176.393394 (dE=-0.109E-03)
 bond charge predicted
       N       E                     dE             d eps       ncg     rms          rms(c)
DAV:   1    -0.176393289003E+03   -0.71180E-05   -0.20150E-04 10880   0.420E-02    0.103E-02
RMM:   2    -0.176393291833E+03   -0.28297E-05   -0.66764E-06 10844   0.855E-03
 351 F= -.17639329E+03 E0= -.17639652E+03  d E =-.654077E-05  mag=    -0.0000
 curvature:  -0.08 expect dE=-0.739E-04 dE for cont linesearch -0.428E-05
 ZBRENT: increasing intervall
 opt :   0.0889  next Energy=  -176.393299 (dE=-0.137E-04)
 bond charge predicted
       N       E                     dE             d eps       ncg     rms          rms(c)
DAV:   1    -0.176393297326E+03   -0.83230E-05   -0.78740E-04 10880   0.813E-02    0.163E-02
RMM:   2    -0.176393302981E+03   -0.56543E-05   -0.22885E-05 10880   0.153E-02
 352 F= -.17639330E+03 E0= -.17639653E+03  d E =-.176883E-04  mag=    -0.0000
 curvature:  -0.14 expect dE=-0.188E-03 dE for cont linesearch -0.420E-06
 trial: gam= 3.49545 g(F)=  0.130E-02 g(S)=  0.448E-04 ort = 0.568E-04 (trialstep = 0.180E-02)
 search vector abs. value=  0.148E-01
 bond charge predicted
       N       E                     dE             d eps       ncg     rms          rms(c)
DAV:   1    -0.176393301301E+03   -0.39746E-05   -0.30733E-05 14784   0.208E-02    0.167E-02
RMM:   2    -0.176393325145E+03   -0.23844E-04   -0.93328E-06 10842   0.905E-03    0.652E-02
RMM:   3    -0.176393300686E+03    0.24458E-04   -0.50135E-06 10600   0.629E-03    0.982E-03
RMM:   4    -0.176393300487E+03    0.19903E-06   -0.85042E-07  9730   0.252E-03
 353 F= -.17639330E+03 E0= -.17639653E+03  d E =0.249319E-05  mag=    -0.0000
 ZBRENT: can't locate minimum, use default step
 trial-energy change:    0.000002  1 .order   -0.000003   -0.000003   -0.000003
 step:   0.0072(harm=  0.0289)  dis= 0.00012  next Energy=  -176.393325 (dE=-0.223E-04)
 bond charge predicted
       N       E                     dE             d eps       ncg     rms          rms(c)
DAV:   1    -0.176393307457E+03   -0.67703E-05   -0.11066E-04 10912   0.303E-02    0.619E-03
RMM:   2    -0.176393310441E+03   -0.29847E-05   -0.41430E-06 10636   0.638E-03
 354 F= -.17639331E+03 E0= -.17639654E+03  d E =-.746086E-05  mag=    -0.0000
 curvature:  -0.05 expect dE=-0.593E-04 dE for cont linesearch -0.590E-05
 ZBRENT: increasing intervall
 opt :   0.0180  next Energy=  -176.393323 (dE=-0.205E-04)
 bond charge predicted
       N       E                     dE             d eps       ncg     rms          rms(c)
DAV:   1    -0.176393316405E+03   -0.89483E-05   -0.45225E-04 10880   0.614E-02    0.104E-02
RMM:   2    -0.176393317154E+03   -0.74919E-06   -0.12207E-05 10880   0.108E-02
 355 F= -.17639332E+03 E0= -.17639655E+03  d E =-.141736E-04  mag=    -0.0000
 curvature:  -0.11 expect dE=-0.629E-04 dE for cont linesearch -0.337E-05
 ZBRENT: increasing intervall
 opt :   0.0396  next Energy=  -176.393318 (dE=-0.147E-04)
 bond charge predicted
       N       E                     dE             d eps       ncg     rms          rms(c)
DAV:   1    -0.176393327366E+03   -0.10961E-04   -0.17883E-03 10880   0.121E-01    0.264E-02
RMM:   2    -0.176393355791E+03   -0.28425E-04   -0.56092E-05 10880   0.234E-02    0.678E-02
RMM:   3    -0.176393330880E+03    0.24910E-04   -0.10247E-05 10862   0.901E-03    0.262E-02
RMM:   4    -0.176393329429E+03    0.14510E-05   -0.19977E-06 11028   0.381E-03
 356 F= -.17639333E+03 E0= -.17639656E+03  d E =-.264486E-04  mag=    -0.0000
 curvature:  -0.02 expect dE=-0.884E-05 dE for cont linesearch -0.118E-06
 trial: gam= 0.00000 g(F)=  0.288E-03 g(S)=  0.228E-03 ort = 0.320E-03 (trialstep = 0.935E-02)
 search vector abs. value=  0.516E-03
 bond charge predicted
       N       E                     dE             d eps       ncg     rms          rms(c)
DAV:   1    -0.176393332813E+03   -0.19329E-05   -0.11578E-05 15440   0.137E-02    0.122E-02
RMM:   2    -0.176393343944E+03   -0.11131E-04   -0.66091E-06 10624   0.763E-03    0.454E-02
RMM:   3    -0.176393332458E+03    0.11486E-04   -0.24208E-06 10310   0.450E-03    0.878E-03
RMM:   4    -0.176393332066E+03    0.39225E-06   -0.32608E-07  7840   0.163E-03
 357 F= -.17639333E+03 E0= -.17639656E+03  d E =-.263655E-05  mag=    -0.0000
 trial-energy change:   -0.000003  1 .order   -0.000004   -0.000005   -0.000004
 step:   0.0367(harm=  0.0367)  dis= 0.00006  next Energy=  -176.393339 (dE=-0.948E-05)
 bond charge predicted
       N       E                     dE             d eps       ncg     rms          rms(c)
DAV:   1    -0.176393341074E+03   -0.86163E-05   -0.76329E-05 11984   0.268E-02    0.103E-02
RMM:   2    -0.176393341977E+03   -0.90294E-06   -0.53343E-06 10880   0.657E-03
 358 F= -.17639334E+03 E0= -.17639656E+03  d E =-.125481E-04  mag=    -0.0000
 curvature:  -0.02 expect dE=-0.116E-04 dE for cont linesearch -0.212E-05
 ZBRENT: increasing intervall
 opt :   0.0914  next Energy=  -176.393348 (dE=-0.182E-04)
 bond charge predicted
       N       E                     dE             d eps       ncg     rms          rms(c)
DAV:   1    -0.176393348752E+03   -0.76772E-05   -0.31351E-04 11808   0.542E-02    0.249E-02
RMM:   2    -0.176393352398E+03   -0.36464E-05   -0.22552E-05 10880   0.141E-02
 359 F= -.17639335E+03 E0= -.17639657E+03  d E =-.229687E-04  mag=    -0.0000
 curvature:  -0.05 expect dE=-0.394E-04 dE for cont linesearch -0.610E-06
 trial: gam= 1.70863 g(F)=  0.759E-03 g(S)=  0.431E-04 ort =-0.801E-04 (trialstep = 0.654E-02)
 search vector abs. value=  0.204E-02
 bond charge predicted
       N       E                     dE             d eps       ncg     rms          rms(c)
DAV:   1    -0.176393347346E+03    0.14053E-05   -0.38572E-05 15088   0.228E-02    0.200E-02
RMM:   2    -0.176393356026E+03   -0.86795E-05   -0.66025E-06 11040   0.823E-03
 360 F= -.17639336E+03 E0= -.17639658E+03  d E =-.362780E-05  mag=    -0.0000
 ZBRENT: can't locate minimum, use default step
 trial-energy change:   -0.000004  1 .order   -0.000004   -0.000004   -0.000003
 step:   0.0261(harm=  0.0293)  dis= 0.00010  next Energy=  -176.393362 (dE=-0.974E-05)
 bond charge predicted
       N       E                     dE             d eps       ncg     rms          rms(c)
DAV:   1    -0.176393354262E+03   -0.69159E-05   -0.17587E-04 11680   0.448E-02    0.221E-02
RMM:   2    -0.176393353877E+03    0.38554E-06   -0.12880E-05 10880   0.123E-02
 361 F= -.17639335E+03 E0= -.17639657E+03  d E =-.147868E-05  mag=    -0.0000
 curvature:  -0.04 expect dE=-0.174E-04 dE for cont linesearch -0.581E-07
 trial: gam= 0.26903 g(F)=  0.395E-03 g(S)=  0.173E-05 ort =-0.519E-04 (trialstep = 0.105E-01)
 search vector abs. value=  0.516E-03
 bond charge predicted
       N       E                     dE             d eps       ncg     rms          rms(c)
DAV:   1    -0.176393355624E+03   -0.13619E-05   -0.25209E-05 15056   0.180E-02    0.194E-02
RMM:   2    -0.176393391588E+03   -0.35964E-04   -0.14158E-05 11038   0.105E-02    0.823E-02
RMM:   3    -0.176393354675E+03    0.36913E-04   -0.62370E-06 10820   0.700E-03    0.761E-03
RMM:   4    -0.176393354801E+03   -0.12654E-06   -0.13691E-06 10850   0.304E-03
 362 F= -.17639335E+03 E0= -.17639658E+03  d E =-.924696E-06  mag=    -0.0000
 trial-energy change:   -0.000001  1 .order   -0.000003   -0.000004   -0.000002
 step:   0.0269(harm=  0.0269)  dis= 0.00006  next Energy=  -176.393359 (dE=-0.515E-05)
 bond charge predicted
       N       E                     dE             d eps       ncg     rms          rms(c)
DAV:   1    -0.176393358158E+03   -0.34836E-05   -0.31592E-05 11408   0.163E-02    0.781E-03
RMM:   2    -0.176393362009E+03   -0.38502E-05   -0.40060E-06 10452   0.596E-03
 363 F= -.17639336E+03 E0= -.17639659E+03  d E =-.813193E-05  mag=    -0.0000
 curvature:  -0.02 expect dE=-0.890E-05 dE for cont linesearch -0.857E-06
 trial: gam= 0.00000 g(F)=  0.426E-03 g(S)=  0.653E-04 ort = 0.156E-03 (trialstep = 0.137E-01)
 search vector abs. value=  0.491E-03
 bond charge predicted
       N       E                     dE             d eps       ncg     rms          rms(c)
DAV:   1    -0.176393360110E+03   -0.19512E-05   -0.24754E-05 12496   0.169E-02    0.547E-03
RMM:   2    -0.176393363137E+03   -0.30276E-05   -0.27884E-06 10365   0.519E-03
 364 F= -.17639336E+03 E0= -.17639659E+03  d E =-.112865E-05  mag=    -0.0000
 trial-energy change:   -0.000001  1 .order   -0.000004   -0.000007   -0.000000
 step:   0.0148(harm=  0.0148)  dis= 0.00005  next Energy=  -176.393366 (dE=-0.362E-05)
 bond charge predicted
       N       E                     dE             d eps       ncg     rms          rms(c)
DAV:   1    -0.176393360196E+03   -0.86002E-07   -0.44808E-06 11664   0.957E-03    0.322E-03
RMM:   2    -0.176393360680E+03   -0.48472E-06   -0.57103E-07  9312   0.217E-03
 365 F= -.17639336E+03 E0= -.17639659E+03  d E =0.132820E-05  mag=    -0.0000
 curvature:  -0.01 expect dE=-0.157E-05 dE for cont linesearch -0.150E-07
 trial: gam= 0.36750 g(F)=  0.189E-03 g(S)=  0.229E-04 ort = 0.316E-04 (trialstep = 0.139E-01)
 search vector abs. value=  0.302E-03
 bond charge predicted
       N       E                     dE             d eps       ncg     rms          rms(c)
DAV:   1    -0.176393363310E+03   -0.31141E-05   -0.14287E-05 11824   0.113E-02    0.398E-03
RMM:   2    -0.176393363979E+03   -0.66882E-06   -0.86665E-07  9986   0.306E-03
 366 F= -.17639336E+03 E0= -.17639659E+03  d E =-.329824E-05  mag=    -0.0000
 ZBRENT: can't locate minimum, use default step
 trial-energy change:   -0.000003  1 .order   -0.000003   -0.000003   -0.000003
 step:   0.0558(harm=  0.1049)  dis= 0.00010  next Energy=  -176.393372 (dE=-0.117E-04)
 bond charge predicted
       N       E                     dE             d eps       ncg     rms          rms(c)
DAV:   1    -0.176393368766E+03   -0.54558E-05   -0.12087E-04 10880   0.315E-02    0.930E-03
RMM:   2    -0.176393368868E+03   -0.10279E-06   -0.47327E-06 10880   0.655E-03
 367 F= -.17639337E+03 E0= -.17639660E+03  d E =-.818795E-05  mag=    -0.0000
 curvature:  -0.05 expect dE=-0.778E-05 dE for cont linesearch -0.719E-06
 trial: gam= 0.28874 g(F)=  0.150E-03 g(S)=  0.487E-05 ort = 0.658E-04 (trialstep = 0.223E-01)
 search vector abs. value=  0.218E-03
 bond charge predicted
       N       E                     dE             d eps       ncg     rms          rms(c)
DAV:   1    -0.176393372200E+03   -0.34342E-05   -0.27891E-05 11056   0.156E-02    0.894E-03
RMM:   2    -0.176393378168E+03   -0.59682E-05   -0.34560E-06 10838   0.572E-03
 368 F= -.17639338E+03 E0= -.17639661E+03  d E =-.929960E-05  mag=    -0.0000
 ZBRENT: can't locate minimum, use default step
 trial-energy change:   -0.000009  1 .order   -0.000004   -0.000004   -0.000003
 step:   0.0893(harm=  0.1937)  dis= 0.00016  next Energy=  -176.393386 (dE=-0.169E-04)
 bond charge predicted
       N       E                     dE             d eps       ncg     rms          rms(c)
DAV:   1    -0.176393370439E+03    0.17607E-05   -0.24161E-04 10880   0.447E-02    0.961E-03
RMM:   2    -0.176393370680E+03   -0.24108E-06   -0.83079E-06 10880   0.892E-03
 369 F= -.17639337E+03 E0= -.17639660E+03  d E =-.181181E-05  mag=    -0.0000
 curvature:  -0.08 expect dE=-0.456E-04 dE for cont linesearch -0.153E-05
 ZBRENT: interpolating
 opt :   0.0691  next Energy=  -176.393371 (dE=-0.248E-05)
 bond charge predicted
       N       E                     dE             d eps       ncg     rms          rms(c)
DAV:   1    -0.176393371520E+03   -0.10809E-05   -0.22013E-05 11520   0.148E-02    0.890E-03
RMM:   2    -0.176393380660E+03   -0.91403E-05   -0.52106E-06 10770   0.658E-03
 370 F= -.17639338E+03 E0= -.17639661E+03  d E =-.117919E-04  mag=    -0.0000
 curvature:  -0.03 expect dE=-0.182E-04 dE for cont linesearch -0.425E-06
 trial: gam= 0.00000 g(F)=  0.543E-03 g(S)=  0.515E-05 ort =-0.529E-04 (trialstep = 0.126E-01)
 search vector abs. value=  0.548E-03
 bond charge predicted
       N       E                     dE             d eps       ncg     rms          rms(c)
DAV:   1    -0.176393377147E+03   -0.56271E-05   -0.28432E-05 14640   0.198E-02    0.388E-03
RMM:   2    -0.176393377312E+03   -0.16543E-06   -0.20424E-06 10304   0.407E-03
 371 F= -.17639338E+03 E0= -.17639660E+03  d E =0.334782E-05  mag=    -0.0000
 ZBRENT: can't locate minimum, use default step
 trial-energy change:    0.000003  1 .order   -0.000006   -0.000007   -0.000006
 step:   0.0505(harm=  0.0685)  dis= 0.00022  next Energy=  -176.393399 (dE=-0.188E-04)
 bond charge predicted
       N       E                     dE             d eps       ncg     rms          rms(c)
DAV:   1    -0.176393372949E+03    0.41985E-05   -0.16309E-04 10880   0.287E-02    0.889E-03
RMM:   2    -0.176393374740E+03   -0.17914E-05   -0.44990E-06 10692   0.590E-03
 372 F= -.17639337E+03 E0= -.17639659E+03  d E =0.592030E-05  mag=    -0.0000
 curvature:  -0.03 expect dE=-0.889E-05 dE for cont linesearch -0.343E-05
 ZBRENT: interpolating
 opt :   0.0370  next Energy=  -176.393376 (dE= 0.425E-05)
 bond charge predicted
       N       E                     dE             d eps       ncg     rms          rms(c)
DAV:   1    -0.176393375599E+03   -0.26506E-05   -0.22206E-05 10976   0.126E-02    0.482E-03
RMM:   2    -0.176393376373E+03   -0.77363E-06   -0.16590E-06 10016   0.341E-03
 373 F= -.17639338E+03 E0= -.17639660E+03  d E =0.428748E-05  mag=    -0.0000
 curvature:  -0.01 expect dE=-0.253E-05 dE for cont linesearch -0.534E-06
 trial: gam= 0.00000 g(F)=  0.164E-03 g(S)=  0.570E-05 ort =-0.140E-03 (trialstep = 0.175E-01)
 search vector abs. value=  0.169E-03
 bond charge predicted
       N       E                     dE             d eps       ncg     rms          rms(c)
DAV:   1    -0.176393378406E+03   -0.28069E-05   -0.14077E-05 12016   0.109E-02    0.461E-03
RMM:   2    -0.176393381412E+03   -0.30056E-05   -0.14914E-06  9972   0.367E-03
 374 F= -.17639338E+03 E0= -.17639660E+03  d E =-.503882E-05  mag=    -0.0000
 ZBRENT: can't locate minimum, use default step
 trial-energy change:   -0.000005  1 .order   -0.000003   -0.000003   -0.000003
 step:   0.0700(harm=  0.1427)  dis= 0.00009  next Energy=  -176.393388 (dE=-0.121E-04)
 bond charge predicted
       N       E                     dE             d eps       ncg     rms          rms(c)
DAV:   1    -0.176393380362E+03   -0.19565E-05   -0.11039E-04 10880   0.280E-02    0.623E-03
RMM:   2    -0.176393381066E+03   -0.70383E-06   -0.37864E-06 10658   0.578E-03
 375 F= -.17639338E+03 E0= -.17639661E+03  d E =-.469357E-05  mag=    -0.0000
 curvature:  -0.05 expect dE=-0.222E-04 dE for cont linesearch -0.468E-05
 ZBRENT: interpolating
 opt :   0.0456  next Energy=  -176.393383 (dE=-0.627E-05)
 bond charge predicted
       N       E                     dE             d eps       ncg     rms          rms(c)
DAV:   1    -0.176393382100E+03   -0.17379E-05   -0.22443E-05 10944   0.130E-02    0.322E-03
RMM:   2    -0.176393382760E+03   -0.65997E-06   -0.12871E-06  9988   0.313E-03
 376 F= -.17639338E+03 E0= -.17639661E+03  d E =-.638762E-05  mag=    -0.0000
 curvature:  -0.02 expect dE=-0.158E-05 dE for cont linesearch -0.141E-05
 ZBRENT: interpolating
 opt :   0.0574  next Energy=  -176.393383 (dE=-0.711E-05)
 bond charge predicted
       N       E                     dE             d eps       ncg     rms          rms(c)
DAV:   1    -0.176393381926E+03    0.17474E-06   -0.65046E-06 11312   0.762E-03    0.267E-03
RMM:   2    -0.176393382478E+03   -0.55265E-06   -0.61740E-07  9412   0.224E-03
 377 F= -.17639338E+03 E0= -.17639661E+03  d E =-.610557E-05  mag=    -0.0000
 curvature:  -0.01 expect dE=-0.334E-05 dE for cont linesearch -0.582E-06
 trial: gam= 0.00000 g(F)=  0.392E-03 g(S)=  0.134E-04 ort =-0.109E-03 (trialstep = 0.106E-01)
 search vector abs. value=  0.405E-03
 bond charge predicted
       N       E                     dE             d eps       ncg     rms          rms(c)
DAV:   1    -0.176393383172E+03   -0.12464E-05   -0.10236E-05 11008   0.827E-03    0.216E-03
RMM:   2    -0.176393383326E+03   -0.15442E-06   -0.65026E-07  9244   0.218E-03
 378 F= -.17639338E+03 E0= -.17639661E+03  d E =-.848153E-06  mag=    -0.0000
 trial-energy change:   -0.000001  1 .order   -0.000002   -0.000004    0.000001
 step:   0.0095(harm=  0.0095)  dis= 0.00004  next Energy=  -176.393384 (dE=-0.192E-05)
 bond charge predicted
       N       E                     dE             d eps       ncg     rms          rms(c)
DAV:   1    -0.176393383230E+03   -0.57715E-07   -0.43889E-07  7136   0.291E-03    0.240E-03
RMM:   2    -0.176393383800E+03   -0.56987E-06   -0.28914E-07  7674   0.181E-03
 379 F= -.17639338E+03 E0= -.17639661E+03  d E =-.132132E-05  mag=    -0.0000
 curvature:  -0.00 expect dE=-0.483E-06 dE for cont linesearch -0.146E-07
 trial: gam= 0.33788 g(F)=  0.991E-04 g(S)=  0.257E-05 ort =-0.352E-04 (trialstep = 0.104E-01)
 search vector abs. value=  0.124E-03
 reached required accuracy - stopping structural energy minimisation
