SrIr2O4 prototype                       
           1
     5.310087    0.005851    0.008917
     0.005303    5.721393    0.026436
     0.022875    0.068579   14.789881
   Sr   Ir   O 
   4   8  16
Direct configuration=     1
   0.49858576  0.01116424  0.11304747
   0.00393437  0.48683312  0.38828654
   0.00278176  0.48378346  0.11177040
   0.50135646  0.01237261  0.38694153
   0.99273585  0.98914649  0.98948336
   0.48135208  0.50328658  0.98634747
   0.01021593  0.00311615  0.25138027
   0.52029216  0.50413308  0.24832183
   0.48782723  0.50440026  0.51341879
   0.00131559  0.99015736  0.51190131
   0.55417259  0.43777823  0.74968945
   0.04569658  0.06282999  0.75040962
   0.25565463  0.74961999  0.48012062
   0.25528686  0.75248404  0.01980309
   0.97090908  0.03025563  0.12160282
   0.53165933  0.45704242  0.37904398
   0.52833895  0.45558844  0.11910243
   0.97333963  0.03255549  0.38033354
   0.33754128  0.81308731  0.25105486
   0.84245353  0.68479785  0.24955494
   0.26860054  0.23710250  0.50150293
   0.26833284  0.23315188  0.99794140
   0.51682453  0.54793867  0.63428011
   0.97733060  0.98393763  0.86754256
   0.98542075  0.97908590  0.63385142
   0.50731429  0.54742495  0.86466117
   0.89919733  0.36625271  0.74940200
   0.38981746  0.14267302  0.74920411
SrIr2O4 prototype                       
           1
     5.337566    0.004001    0.013990
     0.003337    5.753265    0.020243
     0.037003    0.052614   14.858762
   Sr   Ir   O 
   4   8  16
Direct configuration=     2
   0.49920082  0.00934798  0.11401905
   0.00356512  0.48644059  0.38768288
   0.00212563  0.48312974  0.11224032
   0.50173245  0.01291630  0.38606665
   0.98920176  0.98770100  0.98725059
   0.48341478  0.49769556  0.98813196
   0.00886742  0.00430869  0.25173169
   0.52248931  0.49836432  0.24768764
   0.48931313  0.50396802  0.51373145
  -0.00483542  0.98948726  0.51058380
   0.56277293  0.43582677  0.74958861
   0.04051507  0.06495946  0.75116891
   0.25570163  0.75061810  0.48022802
   0.25549389  0.75339873  0.01987924
   0.97084281  0.03121158  0.12183468
   0.53188961  0.45784735  0.37895098
   0.52851420  0.45634009  0.11924219
   0.97336696  0.03349359  0.38029979
   0.33769113  0.81394725  0.25109405
   0.84258727  0.68581051  0.24965102
   0.26861425  0.23802026  0.50158957
   0.26854958  0.23409882  0.99794875
   0.51689651  0.54892607  0.63441803
   0.97765629  0.98496602  0.86754365
   0.98558314  0.98018189  0.63406708
   0.50746609  0.54819412  0.86460219
   0.89932716  0.36704386  0.74946000
   0.38974447  0.14375606  0.74930723
SrIr2O4 prototype                       
           1
     5.300851    0.001925    0.004530
     0.001056    5.715334    0.025180
     0.010477    0.065144   14.823184
   Sr   Ir   O 
   4   8  16
Direct configuration=     3
   0.49889922  0.01023272  0.11354727
   0.00374569  0.48662931  0.38797535
   0.00244242  0.48344823  0.11201255
   0.50155258  0.01264998  0.38649069
   0.99092144  0.98839523  0.98833311
   0.48240740  0.50041568  0.98726415
   0.00952107  0.00373028  0.25156237
   0.52142303  0.50116388  0.24799173
   0.48859136  0.50417925  0.51357925
  -0.00184845  0.98980678  0.51122403
   0.55860060  0.43677675  0.74963371
   0.04302731  0.06392607  0.75080366
   0.25567892  0.75013385  0.48017639
   0.25539360  0.75295495  0.01984266
   0.97087470  0.03074812  0.12172276
   0.53177845  0.45745638  0.37899631
   0.52842910  0.45597563  0.11917473
   0.97335414  0.03303807  0.38031654
   0.33761866  0.81352992  0.25107538
   0.84252252  0.68531920  0.24960485
   0.26860772  0.23757496  0.50154798
   0.26844478  0.23363919  0.99794552
   0.51686160  0.54844712  0.63435159
   0.97749869  0.98446686  0.86754345
   0.98550420  0.97965048  0.63396299
   0.50739290  0.54782059  0.86463105
   0.89926433  0.36665998  0.74943219
   0.38978001  0.14323053  0.74925775
SrIr2O4 prototype                       
           1
     5.310788    0.002487    0.007090
     0.001673    5.725600    0.023844
     0.017656    0.061753   14.832813
   Sr   Ir   O 
   4   8  16
Direct configuration=     4
   0.50020406  0.00959994  0.11426743
   0.00507984  0.48561100  0.38794311
   0.00267867  0.48325221  0.11231075
   0.50168399  0.01187427  0.38559834
   0.98453488  0.98773764  0.98803259
   0.48243486  0.49928048  0.98897556
   0.00800700  0.00990925  0.25185466
   0.52359958  0.49839313  0.24845287
   0.49130539  0.50485820  0.51197573
  -0.00564639  0.98726023  0.51045978
   0.56049929  0.43861473  0.74966508
   0.03899723  0.06235862  0.75037849
   0.25584327  0.75057845  0.48028793
   0.25594069  0.75299546  0.01985582
   0.97107960  0.03093114  0.12146860
   0.53214878  0.45760871  0.37904132
   0.52896696  0.45590051  0.11934479
   0.97353793  0.03329381  0.38029776
   0.33800197  0.81346896  0.25114837
   0.84281189  0.68552965  0.24966490
   0.26870658  0.23738736  0.50168827
   0.26831317  0.23292243  0.99791900
   0.51729740  0.54948446  0.63459874
   0.97725363  0.98431872  0.86714589
   0.98546217  0.97970379  0.63383222
   0.50763020  0.54813056  0.86487556
   0.90193434  0.36801319  0.74952284
   0.38998101  0.14298310  0.74939361
SrIr2O4 prototype                       
           1
     5.319442    0.002976    0.009320
     0.002211    5.734541    0.022680
     0.023909    0.058799   14.841199
   Sr   Ir   O 
   4   8  16
Direct configuration=     5
   0.49984756  0.00977265  0.11407176
   0.00471641  0.48588829  0.38795153
   0.00261391  0.48330577  0.11222979
   0.50164947  0.01208506  0.38584034
   0.98627585  0.98791723  0.98811516
   0.48242519  0.49959079  0.98851114
   0.00841851  0.00822613  0.25177620
   0.52300612  0.49914808  0.24832713
   0.49056784  0.50467200  0.51241036
  -0.00461003  0.98795393  0.51066754
   0.55998160  0.43811381  0.74965641
   0.04009628  0.06278580  0.75049439
   0.25579828  0.75045737  0.48025768
   0.25579157  0.75298438  0.01985216
   0.97102408  0.03088111  0.12153753
   0.53204778  0.45756720  0.37902906
   0.52882016  0.45592102  0.11929855
   0.97348784  0.03322410  0.38030284
   0.33789742  0.81348558  0.25112849
   0.84273293  0.68547232  0.24964858
   0.26867947  0.23743855  0.50165017
   0.26834915  0.23311770  0.99792615
   0.51717818  0.54920195  0.63453171
   0.97732097  0.98435887  0.86725377
   0.98547380  0.97968919  0.63386771
   0.50756516  0.54804623  0.86480921
   0.90120642  0.36764431  0.74949792
   0.38992608  0.14305057  0.74935669
SrIr2O4 prototype                       
           1
     5.328504    0.003488    0.011655
     0.002774    5.743903    0.021462
     0.030456    0.055707   14.849980
   Sr   Ir   O 
   4   8  16
Direct configuration=     6
   0.49953786  0.00992272  0.11390153
   0.00440044  0.48612939  0.38795894
   0.00255770  0.48335230  0.11215934
   0.50161916  0.01226845  0.38605100
   0.98778919  0.98807326  0.98818678
   0.48241730  0.49986032  0.98810695
   0.00877650  0.00676278  0.25170771
   0.52249028  0.49980441  0.24821784
   0.48992619  0.50451041  0.51278875
  -0.00370942  0.98855705  0.51084827
   0.55953162  0.43767837  0.74964891
   0.04105152  0.06315715  0.75059513
   0.25575921  0.75035210  0.48023135
   0.25566195  0.75297475  0.01984899
   0.97097574  0.03083765  0.12159754
   0.53195999  0.45753111  0.37901840
   0.52869260  0.45593885  0.11925833
   0.97344430  0.03316351  0.38030727
   0.33780655  0.81350002  0.25111121
   0.84266430  0.68542248  0.24963438
   0.26865594  0.23748303  0.50161702
   0.26838041  0.23328747  0.99793238
   0.51707465  0.54895631  0.63447336
   0.97737938  0.98439382  0.86734767
   0.98548386  0.97967652  0.63389860
   0.50750871  0.54797289  0.86475147
   0.90057369  0.36732366  0.74947630
   0.38987836  0.14310922  0.74932457
SrIr2O4 prototype                       
           1
     5.324293    0.003250    0.010570
     0.002512    5.739552    0.022028
     0.027413    0.057144   14.845899
   Sr   Ir   O 
   4   8  16
Direct configuration=     7
   0.49921431  0.01007955  0.11372345
   0.00407011  0.48638148  0.38796676
   0.00249902  0.48340091  0.11208563
   0.50158720  0.01246029  0.38627146
   0.98937108  0.98823628  0.98826150
   0.48240952  0.50014188  0.98768400
   0.00915097  0.00523288  0.25163586
   0.52195111  0.50049053  0.24810360
   0.48925498  0.50434174  0.51318481
  -0.00276824  0.98918759  0.51103730
   0.55906128  0.43722317  0.74964109
   0.04204993  0.06354534  0.75070044
   0.25571842  0.75024203  0.48020379
   0.25552645  0.75296470  0.01984570
   0.97092514  0.03079225  0.12166034
   0.53186825  0.45749339  0.37900726
   0.52855929  0.45595748  0.11921626
   0.97339878  0.03310017  0.38031191
   0.33771158  0.81351512  0.25109314
   0.84259259  0.68537037  0.24961953
   0.26863138  0.23752951  0.50158234
   0.26841306  0.23346496  0.99793892
   0.51696651  0.54869949  0.63441230
   0.97744032  0.98443041  0.86744592
   0.98549435  0.97966328  0.63393092
   0.50744978  0.54789619  0.86469104
   0.89991232  0.36698849  0.74945375
   0.38982851  0.14317052  0.74929098
SrIr2O4 prototype                       
           1
     5.305634   -0.005652    0.002410
    -0.007119    5.717535    0.024631
     0.004440    0.063574   14.858322
   Sr   Ir   O 
   4   8  16
Direct configuration=     8
   0.49936433  0.01000681  0.11380613
   0.00422339  0.48626450  0.38796309
   0.00252620  0.48337837  0.11211986
   0.50160217  0.01237122  0.38616905
   0.98863719  0.98816068  0.98822690
   0.48241290  0.50001135  0.98788045
   0.00897711  0.00594279  0.25166932
   0.52220124  0.50017218  0.24815660
   0.48956662  0.50441987  0.51300081
  -0.00320478  0.98889501  0.51094954
   0.55927948  0.43743436  0.74964471
   0.04158678  0.06336523  0.75065158
   0.25573733  0.75029311  0.48021659
   0.25558931  0.75296936  0.01984722
   0.97094865  0.03081330  0.12163117
   0.53191081  0.45751089  0.37901243
   0.52862112  0.45594884  0.11923579
   0.97341990  0.03312956  0.38030976
   0.33775563  0.81350812  0.25110153
   0.84262585  0.68539455  0.24962642
   0.26864276  0.23750795  0.50159845
   0.26839792  0.23338260  0.99793588
   0.51701664  0.54881867  0.63444067
   0.97741210  0.98441341  0.86740029
   0.98548950  0.97966941  0.63391591
   0.50747708  0.54793179  0.86471910
   0.90021915  0.36714399  0.74946419
   0.38985162  0.14314208  0.74930658
SrIr2O4 prototype                       
           1
     5.313845   -0.001735    0.006001
    -0.002880    5.727224    0.023486
     0.014550    0.060744   14.852855
   Sr   Ir   O 
   4   8  16
Direct configuration=     9
   0.49990735  0.00944983  0.11442584
   0.00547065  0.48490483  0.38784105
   0.00290761  0.48315330  0.11231339
   0.50090974  0.01129830  0.38547659
   0.98599504  0.98820558  0.98857220
   0.48177881  0.50102767  0.98852284
   0.00915429  0.01133955  0.25172837
   0.52251084  0.49822610  0.24798424
   0.49165433  0.50420116  0.51167030
  -0.00258609  0.98926649  0.51203135
   0.55867218  0.44019018  0.74987457
   0.04012351  0.06069828  0.75009432
   0.25559636  0.75054342  0.48028032
   0.25578457  0.75285010  0.01980873
   0.97090633  0.03073311  0.12122983
   0.53196614  0.45742122  0.37904506
   0.52887834  0.45562671  0.11946634
   0.97327674  0.03314709  0.38028419
   0.33776702  0.81317026  0.25113910
   0.84263055  0.68542627  0.24964689
   0.26844534  0.23694923  0.50170977
   0.26782881  0.23211709  0.99786960
   0.51709300  0.54971993  0.63441878
   0.97656432  0.98386606  0.86698316
   0.98493684  0.97929659  0.63353159
   0.50734923  0.54801299  0.86511397
   0.90298821  0.36863604  0.74952754
   0.38977794  0.14252262  0.74941006
SrIr2O4 prototype                       
           1
     5.316218   -0.005978    0.002583
    -0.007468    5.730349    0.022314
     0.004898    0.057525   14.901335
   Sr   Ir   O 
   4   8  16
Direct configuration=    10
   0.49966681  0.00969583  0.11415317
   0.00492114  0.48550459  0.38789431
   0.00273898  0.48325257  0.11222818
   0.50121772  0.01177242  0.38578115
   0.98716120  0.98818772  0.98842100
   0.48205681  0.50057943  0.98824060
   0.00907161  0.00895530  0.25170279
   0.52237600  0.49908554  0.24805980
   0.49073504  0.50429570  0.51225482
  -0.00286168  0.98910248  0.51155555
   0.55893773  0.43897325  0.74977386
   0.04077293  0.06187720  0.75033949
   0.25565829  0.75043296  0.48025235
   0.25569851  0.75290264  0.01982560
   0.97092585  0.03076837  0.12140630
   0.53194171  0.45746081  0.37903069
   0.52876457  0.45576896  0.11936488
   0.97334000  0.03313943  0.38029547
   0.33776219  0.81331953  0.25112255
   0.84262841  0.68541227  0.24963789
   0.26853276  0.23719625  0.50166082
   0.26808129  0.23267652  0.99789878
   0.51705859  0.54932171  0.63442846
   0.97693996  0.98410824  0.86716674
   0.98518194  0.97946148  0.63370069
   0.50740487  0.54797740  0.86494038
   0.90176399  0.36797502  0.74949914
   0.38981078  0.14279639  0.74936452
SrIr2O4 prototype                       
           1
     5.316352   -0.006217    0.002390
    -0.007727    5.730525    0.022248
     0.004353    0.057343   14.904071
   Sr   Ir   O 
   4   8  16
Direct configuration=    11
   0.49972740  0.00920271  0.11462998
   0.00559624  0.48441646  0.38776688
   0.00315717  0.48342246  0.11234759
   0.50070354  0.01128122  0.38559185
   0.98765219  0.98854688  0.98849325
   0.48238625  0.50160691  0.98769627
   0.00807850  0.01175201  0.25084618
   0.52089552  0.49901551  0.24805103
   0.49328093  0.50344480  0.51238438
  -0.00178151  0.98907252  0.51213998
   0.55806039  0.43966892  0.74987637
   0.04106855  0.06133697  0.75000423
   0.25544357  0.75060015  0.48034122
   0.25560410  0.75297496  0.01983439
   0.97083765  0.03069544  0.12117256
   0.53187790  0.45739091  0.37903401
   0.52884316  0.45550443  0.11959747
   0.97311626  0.03315307  0.38041342
   0.33752411  0.81306523  0.25118513
   0.84253118  0.68557337  0.24968381
   0.26834021  0.23669433  0.50178509
   0.26754481  0.23160244  0.99789775
   0.51692312  0.54988603  0.63414569
   0.97603317  0.98358860  0.86709947
   0.98448762  0.97902449  0.63351813
   0.50716779  0.54799883  0.86539833
   0.90344697  0.36914113  0.74958544
   0.38974120  0.14233919  0.74948010
SrIr2O4 prototype                       
           1
     5.317219   -0.010718   -0.003513
    -0.012600    5.733556    0.021175
    -0.012260    0.054439   14.933888
   Sr   Ir   O 
   4   8  16
Direct configuration=    12
   0.49973084  0.00917491  0.11465680
   0.00563426  0.48435511  0.38775971
   0.00318079  0.48343207  0.11235431
   0.50067449  0.01125349  0.38558120
   0.98767991  0.98856717  0.98849732
   0.48240483  0.50166486  0.98766566
   0.00802252  0.01190969  0.25079799
   0.52081200  0.49901150  0.24805052
   0.49342452  0.50339692  0.51239169
  -0.00172052  0.98907090  0.51217287
   0.55801094  0.43970813  0.74988212
   0.04108517  0.06130650  0.74998538
   0.25543148  0.75060958  0.48034622
   0.25559878  0.75297903  0.01983489
   0.97083265  0.03069131  0.12115941
   0.53187430  0.45738697  0.37903420
   0.52884761  0.45548952  0.11961056
   0.97310365  0.03315384  0.38042005
   0.33751068  0.81305088  0.25118864
   0.84252571  0.68558246  0.24968639
   0.26832934  0.23666601  0.50179208
   0.26751450  0.23154184  0.99789768
   0.51691548  0.54991784  0.63412978
   0.97598199  0.98355924  0.86709567
   0.98444841  0.97899981  0.63350785
   0.50715446  0.54800004  0.86542409
   0.90354197  0.36920698  0.74959032
   0.38973726  0.14231341  0.74948660
SrIr2O4 prototype                       
           1
     5.317031   -0.009744   -0.002235
    -0.011545    5.732900    0.021407
    -0.008663    0.055068   14.927432
   Sr   Ir   O 
   4   8  16
Direct configuration=    13
   0.49961255  0.00857564  0.11510154
   0.00600289  0.48350462  0.38759498
   0.00400525  0.48367542  0.11246377
   0.50025960  0.01095779  0.38546027
   0.98957643  0.98927765  0.98866443
   0.48359903  0.50186898  0.98739869
   0.00838535  0.01511233  0.25052232
   0.51806705  0.49964659  0.24771297
   0.49347274  0.50282402  0.51246464
  -0.00215949  0.98819681  0.51191696
   0.55840808  0.43901370  0.74998373
   0.04195505  0.06131807  0.74975050
   0.25536004  0.75054312  0.48050165
   0.25547366  0.75305438  0.01986119
   0.97072362  0.03067140  0.12092393
   0.53179124  0.45738346  0.37902052
   0.52884931  0.45528562  0.11977504
   0.97291372  0.03318531  0.38046643
   0.33709078  0.81284539  0.25126611
   0.84231966  0.68588090  0.24973939
   0.26823434  0.23628426  0.50193372
   0.26715728  0.23068144  0.99793667
   0.51686868  0.55032727  0.63390345
   0.97509469  0.98310819  0.86707597
   0.98368374  0.97855770  0.63351225
   0.50703667  0.54796709  0.86572910
   0.90475770  0.37026604  0.74969358
   0.38974835  0.14198681  0.74962622
SrIr2O4 prototype                       
           1
     5.314111   -0.013874   -0.006494
    -0.016016    5.729432    0.021617
    -0.020656    0.055562   14.927939
   Sr   Ir   O 
   4   8  16
Direct configuration=    14
   0.49963797  0.00870530  0.11500546
   0.00592337  0.48368863  0.38763056
   0.00382664  0.48362261  0.11244004
   0.50034956  0.01102187  0.38548644
   0.98916561  0.98912355  0.98862815
   0.48334064  0.50182464  0.98745627
   0.00830635  0.01441923  0.25058181
   0.51866139  0.49950966  0.24778613
   0.49346237  0.50294798  0.51244888
  -0.00206411  0.98838607  0.51197231
   0.55832217  0.43916390  0.74996175
   0.04176689  0.06131544  0.74980118
   0.25537541  0.75055750  0.48046807
   0.25550072  0.75303809  0.01985551
   0.97074738  0.03067576  0.12097483
   0.53180923  0.45738423  0.37902349
   0.52884887  0.45532972  0.11973950
   0.97295480  0.03317852  0.38045642
   0.33718167  0.81288992  0.25124941
   0.84236417  0.68581634  0.24972795
   0.26825488  0.23636687  0.50190312
   0.26723476  0.23086769  0.99792828
   0.51687888  0.55023870  0.63395235
   0.97528688  0.98320595  0.86708031
   0.98384937  0.97865350  0.63351137
   0.50706197  0.54797421  0.86566320
   0.90449423  0.37003663  0.74967114
   0.38974592  0.14205747  0.74959605
SrIr2O4 prototype                       
           1
     5.314994   -0.012626   -0.005206
    -0.014664    5.730481    0.021553
    -0.017030    0.055413   14.927786
   Sr   Ir   O 
   4   8  16
Direct configuration=    15
   0.49943289  0.00806690  0.11549683
   0.00599333  0.48323570  0.38741278
   0.00457367  0.48387719  0.11258754
   0.49997857  0.01108975  0.38546919
   0.99184838  0.98879917  0.98826701
   0.48660779  0.50216958  0.98754488
   0.00840095  0.01584539  0.25077642
   0.51745168  0.49969847  0.24738500
   0.49184609  0.50231218  0.51226737
  -0.00274407  0.98830693  0.51148417
   0.55884854  0.43827102  0.75013766
   0.04231731  0.06151575  0.74977915
   0.25532098  0.75039511  0.48066319
   0.25529428  0.75307750  0.01987830
   0.97052441  0.03081189  0.12077890
   0.53157851  0.45754539  0.37897031
   0.52866735  0.45526150  0.11980054
   0.97265986  0.03332684  0.38039319
   0.33650137  0.81284725  0.25133699
   0.84187761  0.68632765  0.24977576
   0.26813890  0.23616143  0.50205104
   0.26698998  0.23038826  0.99799539
   0.51681127  0.55055695  0.63385890
   0.97440818  0.98296310  0.86706638
   0.98295703  0.97830891  0.63353995
   0.50697084  0.54796381  0.86574967
   0.90527061  0.37098294  0.74978390
   0.38976171  0.14189344  0.74974959
SrIr2O4 prototype                       
           1
     5.312221   -0.014865   -0.004766
    -0.017082    5.725379    0.021665
    -0.015824    0.055723   14.912052
   Sr   Ir   O 
   4   8  16
Direct configuration=    16
   0.49949476  0.00826009  0.11534829
   0.00597243  0.48337270  0.38747861
   0.00434752  0.48380001  0.11254288
   0.50009079  0.01106930  0.38547444
   0.99103714  0.98889671  0.98837596
   0.48561928  0.50206452  0.98751781
   0.00837184  0.01541392  0.25071758
   0.51781786  0.49964160  0.24750638
   0.49233532  0.50250488  0.51232238
  -0.00253802  0.98833101  0.51163181
   0.55868941  0.43854103  0.75008443
   0.04215076  0.06145503  0.74978576
   0.25533736  0.75044425  0.48060420
   0.25535670  0.75306562  0.01987143
   0.97059196  0.03077075  0.12083816
   0.53164830  0.45749669  0.37898641
   0.52872224  0.45528218  0.11978211
   0.97274909  0.03328203  0.38041233
   0.33670712  0.81286031  0.25131057
   0.84202464  0.68617307  0.24976135
   0.26817394  0.23622361  0.50200633
   0.26706411  0.23053336  0.99797512
   0.51683170  0.55046068  0.63388716
   0.97467407  0.98303676  0.86707066
   0.98322704  0.97841335  0.63353139
   0.50699836  0.54796698  0.86572353
   0.90503542  0.37069648  0.74974975
   0.38975687  0.14194306  0.74970316
SrIr2O4 prototype                       
           1
     5.312079   -0.014980   -0.004744
    -0.017206    5.725117    0.021671
    -0.015762    0.055739   14.911246
   Sr   Ir   O 
   4   8  16
Direct configuration=    17
   0.49962455  0.00784107  0.11563723
   0.00589616  0.48330736  0.38730388
   0.00490938  0.48399665  0.11267186
   0.50026483  0.01123361  0.38549154
   0.99002293  0.98877600  0.98814431
   0.48748000  0.50217991  0.98750283
   0.00820012  0.01522481  0.25099081
   0.51695007  0.49907533  0.24717092
   0.49159752  0.50271865  0.51226831
  -0.00275529  0.98903607  0.51169881
   0.55885395  0.43799874  0.75018639
   0.04183162  0.06171661  0.74997527
   0.25550292  0.75026803  0.48070835
   0.25545903  0.75288411  0.01985267
   0.97063349  0.03088487  0.12076790
   0.53161669  0.45763754  0.37889999
   0.52874916  0.45526689  0.11970490
   0.97272092  0.03338561  0.38028307
   0.33636392  0.81290009  0.25135143
   0.84176458  0.68653679  0.24976279
   0.26829709  0.23610254  0.50207463
   0.26728533  0.23058906  0.99801094
   0.51699732  0.55047460  0.63392746
   0.97445448  0.98297150  0.86697004
   0.98289321  0.97824017  0.63347319
   0.50721218  0.54792633  0.86559180
   0.90544232  0.37100453  0.74979704
   0.39001951  0.14182252  0.74978164
SrIr2O4 prototype                       
           1
     5.310030   -0.016357   -0.003131
    -0.018683    5.722610    0.022917
    -0.011242    0.059008   14.903334
   Sr   Ir   O 
   4   8  16
Direct configuration=    18
   0.49963120  0.00781956  0.11565206
   0.00589225  0.48330401  0.38729491
   0.00493821  0.48400676  0.11267848
   0.50027377  0.01124204  0.38549241
   0.98997090  0.98876978  0.98813242
   0.48757546  0.50218586  0.98750206
   0.00819131  0.01521511  0.25100484
   0.51690554  0.49904625  0.24715370
   0.49155967  0.50272961  0.51226554
  -0.00276642  0.98907225  0.51170225
   0.55886238  0.43797091  0.75019162
   0.04181525  0.06173003  0.74998500
   0.25551141  0.75025899  0.48071370
   0.25546427  0.75287480  0.01985171
   0.97063562  0.03089072  0.12076429
   0.53161507  0.45764477  0.37889556
   0.52875055  0.45526611  0.11970093
   0.97271948  0.03339092  0.38027643
   0.33634632  0.81290212  0.25135352
   0.84175125  0.68655545  0.24976287
   0.26830341  0.23609633  0.50207813
   0.26729668  0.23059192  0.99801278
   0.51700581  0.55047531  0.63392953
   0.97444321  0.98296815  0.86696488
   0.98287608  0.97823128  0.63347020
   0.50722315  0.54792425  0.86558504
   0.90546320  0.37102035  0.74979947
   0.39003298  0.14181634  0.74978567
SrIr2O4 prototype                       
           1
     5.304064   -0.020368    0.001566
    -0.022984    5.715306    0.026546
     0.001924    0.068528   14.880292
   Sr   Ir   O 
   4   8  16
Direct configuration=    19
   0.49975424  0.00759771  0.11581377
   0.00574657  0.48342089  0.38716841
   0.00516294  0.48419436  0.11273530
   0.50043527  0.01134748  0.38549932
   0.98931814  0.98858907  0.98819746
   0.48731496  0.50231763  0.98748023
   0.00867422  0.01499726  0.25086894
   0.51601188  0.49824761  0.24723209
   0.49154259  0.50302673  0.51227556
  -0.00250762  0.98910153  0.51163493
   0.55880924  0.43776967  0.75006478
   0.04192161  0.06220114  0.75021413
   0.25560280  0.75018200  0.48079528
   0.25560455  0.75264262  0.01981219
   0.97070561  0.03097514  0.12075115
   0.53155885  0.45779182  0.37880612
   0.52882331  0.45526839  0.11955727
   0.97273215  0.03348641  0.38021133
   0.33602978  0.81294133  0.25140492
   0.84145719  0.68686985  0.24976054
   0.26843828  0.23596899  0.50214167
   0.26759468  0.23080109  0.99804614
   0.51718223  0.55042020  0.63403383
   0.97426535  0.98290588  0.86688459
   0.98264338  0.97814976  0.63347619
   0.50746073  0.54793854  0.86544035
   0.90572683  0.37123081  0.74984206
   0.39027823  0.14161610  0.74985147
SrIr2O4 prototype                       
           1
     5.306923   -0.018446   -0.000685
    -0.020923    5.718806    0.024807
    -0.004385    0.063966   14.891334
   Sr   Ir   O 
   4   8  16
Direct configuration=    20
   0.50011213  0.00695115  0.11628496
   0.00532256  0.48376155  0.38679980
   0.00581767  0.48474101  0.11290075
   0.50090588  0.01165478  0.38551938
   0.98741607  0.98806197  0.98838722
   0.48655620  0.50270138  0.98741668
   0.01008132  0.01436313  0.25047287
   0.51340748  0.49591996  0.24746098
   0.49149303  0.50389236  0.51230467
  -0.00175345  0.98918712  0.51143867
   0.55865459  0.43718353  0.74969525
   0.04223129  0.06357344  0.75088164
   0.25586880  0.74995760  0.48103298
   0.25601313  0.75196634  0.01969705
   0.97090960  0.03122116  0.12071283
   0.53139541  0.45822037  0.37854549
   0.52903566  0.45527532  0.11913863
   0.97276927  0.03376473  0.38002160
   0.33510751  0.81305525  0.25155476
   0.84060073  0.68778563  0.24975378
   0.26883096  0.23559795  0.50232677
   0.26846298  0.23141065  0.99814318
   0.51769591  0.55025956  0.63433767
   0.97374733  0.98272448  0.86665074
   0.98196535  0.97791207  0.63349374
   0.50815326  0.54798060  0.86501869
   0.90649493  0.37184412  0.74996604
   0.39099240  0.14103277  0.75004319
SrIr2O4 prototype                       
           1
     5.306132   -0.019216    0.000210
    -0.021746    5.718443    0.025135
    -0.001878    0.064839   14.888480
   Sr   Ir   O 
   4   8  16
Direct configuration=    21
   0.49994125  0.00726165  0.11605879
   0.00552541  0.48359794  0.38697669
   0.00550354  0.48447862  0.11282151
   0.50068001  0.01150719  0.38550986
   0.98832902  0.98831568  0.98829579
   0.48691999  0.50251745  0.98744711
   0.00940604  0.01466661  0.25066310
   0.51465814  0.49703790  0.24735045
   0.49151650  0.50347704  0.51229079
  -0.00211553  0.98914564  0.51153299
   0.55872857  0.43746453  0.74987252
   0.04208298  0.06291541  0.75056148
   0.25574156  0.75006538  0.48091891
   0.25581724  0.75229061  0.01975229
   0.97081159  0.03110301  0.12073128
   0.53147334  0.45801458  0.37867060
   0.52893328  0.45527158  0.11933959
   0.97275113  0.03363102  0.38011270
   0.33555011  0.81300102  0.25148271
   0.84101125  0.68734650  0.24975700
   0.26864293  0.23577600  0.50223795
   0.26804629  0.23111795  0.99809681
   0.51744990  0.55033671  0.63419190
   0.97399564  0.98281151  0.86676288
   0.98229075  0.97802636  0.63348519
   0.50782049  0.54795984  0.86522118
   0.90612634  0.37154968  0.74990672
   0.39065023  0.14131258  0.74995121
SrIr2O4 prototype                       
           1
     5.305476   -0.019854    0.000953
    -0.022429    5.718142    0.025408
     0.000201    0.065563   14.886113
   Sr   Ir   O 
   4   8  16
Direct configuration=    22
   0.50000668  0.00709948  0.11614146
   0.00544250  0.48372715  0.38690389
   0.00563144  0.48455886  0.11286194
   0.50072133  0.01152860  0.38552335
   0.98818846  0.98820500  0.98827513
   0.48701263  0.50254110  0.98737453
   0.00959420  0.01453811  0.25059742
   0.51402706  0.49661371  0.24743332
   0.49152737  0.50365736  0.51234451
  -0.00197947  0.98896627  0.51157459
   0.55882187  0.43758971  0.74976221
   0.04215165  0.06335033  0.75056843
   0.25575102  0.75002390  0.48096751
   0.25587739  0.75216957  0.01972510
   0.97083242  0.03114134  0.12071673
   0.53140597  0.45808767  0.37863117
   0.52897197  0.45527080  0.11925667
   0.97275492  0.03368219  0.38007090
   0.33533533  0.81299994  0.25152184
   0.84077358  0.68752518  0.24975444
   0.26871717  0.23568220  0.50228256
   0.26820880  0.23121107  0.99811620
   0.51752864  0.55030211  0.63423619
   0.97383239  0.98273097  0.86676465
   0.98214163  0.97799450  0.63352604
   0.50795047  0.54796326  0.86513804
   0.90626649  0.37170218  0.74993756
   0.39079407  0.14113742  0.74999359
SrIr2O4 prototype                       
           1
     5.304164   -0.021131    0.002438
    -0.023795    5.717541    0.025952
     0.004359    0.067011   14.881379
   Sr   Ir   O 
   4   8  16
Direct configuration=    23
   0.50006090  0.00696499  0.11621003
   0.00537379  0.48383431  0.38684352
   0.00573752  0.48462542  0.11289548
   0.50075560  0.01154636  0.38553454
   0.98807187  0.98811320  0.98825801
   0.48708950  0.50256074  0.98731433
   0.00975027  0.01443158  0.25054293
   0.51350356  0.49626183  0.24750210
   0.49153638  0.50380689  0.51238905
  -0.00186667  0.98881753  0.51160909
   0.55889931  0.43769355  0.74967071
   0.04220866  0.06371103  0.75057418
   0.25575885  0.74998951  0.48100783
   0.25592727  0.75206919  0.01970254
   0.97084970  0.03117314  0.12070467
   0.53135012  0.45814828  0.37859846
   0.52900410  0.45527017  0.11918789
   0.97275809  0.03372464  0.38003624
   0.33515718  0.81299901  0.25155430
   0.84057647  0.68767333  0.24975233
   0.26877871  0.23560441  0.50231957
   0.26834359  0.23128832  0.99813228
   0.51759393  0.55027342  0.63427293
   0.97369698  0.98266416  0.86676613
   0.98201793  0.97796805  0.63355993
   0.50805830  0.54796611  0.86506908
   0.90638274  0.37182867  0.74996313
   0.39091333  0.14099217  0.75002874
SrIr2O4 prototype                       
           1
     5.304980   -0.020337    0.001515
    -0.022946    5.717915    0.025614
     0.001774    0.066111   14.884321
   Sr   Ir   O 
   4   8  16
Direct configuration=    24
   0.50016927  0.00669598  0.11634718
   0.00523643  0.48404864  0.38672275
   0.00594968  0.48475854  0.11296254