   28   28  901    2
  0.1818424E+02  0.5601662E-09  0.5778295E-09  0.1573029E-08  0.5000000E-15
  1.000000000000000E-004
  CAR 
 SrIr2O4 prototype                       
    208     20    136
 
  0.3742002E-15  0.3742002E-15  0.1262379E-14  0.3125000E-01
    1      -31.247207    -31.247207   1.000000   1.000000
    2      -31.215764    -31.215764   1.000000   1.000000
    3      -31.182258    -31.182258   1.000000   1.000000
    4      -31.140707    -31.140707   1.000000   1.000000
    5      -17.836649    -17.836649   1.000000   1.000000
    6      -17.375317    -17.375317   1.000000   1.000000
    7      -17.275687    -17.275687   1.000000   1.000000
    8      -17.226860    -17.226860   1.000000   1.000000
    9      -16.937908    -16.937908   1.000000   1.000000
   10      -16.818245    -16.818245   1.000000   1.000000
   11      -16.729224    -16.729224   1.000000   1.000000
   12      -16.688495    -16.688495   1.000000   1.000000
   13      -16.617278    -16.617278   1.000000   1.000000
   14      -16.526941    -16.526941   1.000000   1.000000
   15      -16.516283    -16.516283   1.000000   1.000000
   16      -16.258377    -16.258377   1.000000   1.000000
   17      -15.952076    -15.952076   1.000000   1.000000
   18      -15.796678    -15.796678   1.000000   1.000000
   19      -15.694069    -15.694069   1.000000   1.000000
   20      -15.612457    -15.612457   1.000000   1.000000
   21      -13.486189    -13.486189   1.000000   1.000000
   22      -13.450638    -13.450638   1.000000   1.000000
   23      -13.416919    -13.416919   1.000000   1.000000
   24      -13.379473    -13.379473   1.000000   1.000000
   25      -13.317503    -13.317503   1.000000   1.000000
   26      -13.278280    -13.278280   1.000000   1.000000
   27      -13.167352    -13.167352   1.000000   1.000000
   28      -13.127767    -13.127767   1.000000   1.000000
   29      -13.087779    -13.087779   1.000000   1.000000
   30      -12.919077    -12.919077   1.000000   1.000000
   31      -12.808157    -12.808157   1.000000   1.000000
   32      -12.738501    -12.738501   1.000000   1.000000
   33       -7.004563     -7.004563   1.000000   1.000000
   34       -6.241566     -6.241566   1.000000   1.000000
   35       -5.284059     -5.284059   1.000000   1.000000
   36       -5.109524     -5.109524   1.000000   1.000000
   37       -5.052798     -5.052798   1.000000   1.000000
   38       -4.955223     -4.955223   1.000000   1.000000
   39       -4.655624     -4.655624   1.000000   1.000000
   40       -4.597313     -4.597313   1.000000   1.000000
   41       -4.338671     -4.338671   1.000000   1.000000
   42       -4.283312     -4.283312   1.000000   1.000000
   43       -3.878479     -3.878479   1.000000   1.000000
   44       -3.649487     -3.649487   1.000000   1.000000
   45       -3.536368     -3.536368   1.000000   1.000000
   46       -3.428001     -3.428001   1.000000   1.000000
   47       -3.369643     -3.369643   1.000000   1.000000
   48       -3.321993     -3.321993   1.000000   1.000000
   49       -3.251995     -3.251995   1.000000   1.000000
   50       -3.220750     -3.220750   1.000000   1.000000
   51       -3.116103     -3.116103   1.000000   1.000000
   52       -2.982705     -2.982705   1.000000   1.000000
   53       -2.946025     -2.946025   1.000000   1.000000
   54       -2.941805     -2.941805   1.000000   1.000000
   55       -2.909716     -2.909716   1.000000   1.000000
   56       -2.826330     -2.826330   1.000000   1.000000
   57       -2.751007     -2.751007   1.000000   1.000000
   58       -2.703892     -2.703892   1.000000   1.000000
   59       -2.649007     -2.649007   1.000000   1.000000
   60       -2.549648     -2.549648   1.000000   1.000000
   61       -2.467928     -2.467928   1.000000   1.000000
   62       -2.250592     -2.250592   1.000000   1.000000
   63       -2.111082     -2.111082   1.000000   1.000000
   64       -1.992594     -1.992594   1.000000   1.000000
   65       -1.925626     -1.925626   1.000000   1.000000
   66       -1.876770     -1.876770   1.000000   1.000000
   67       -1.851800     -1.851800   1.000000   1.000000
   68       -1.754475     -1.754475   1.000000   1.000000
   69       -1.717719     -1.717719   1.000000   1.000000
   70       -1.582612     -1.582612   1.000000   1.000000
   71       -1.371285     -1.371285   1.000000   1.000000
   72       -1.244959     -1.244959   1.000000   1.000000
   73       -1.083841     -1.083841   1.000000   1.000000
   74       -0.991482     -0.991482   1.000000   1.000000
   75       -0.693505     -0.693505   1.000000   1.000000
   76       -0.611788     -0.611788   1.000000   1.000000
   77       -0.556004     -0.556004   1.000000   1.000000
   78       -0.383624     -0.383624   1.000000   1.000000
   79       -0.192248     -0.192248   1.000000   1.000000
   80       -0.122927     -0.122927   1.000000   1.000000
   81        0.555371      0.555371   1.000000   1.000000
   82        0.833852      0.833852   1.000000   1.000000
   83        0.857854      0.857854   1.000000   1.000000
   84        0.872906      0.872906   1.000000   1.000000
   85        1.117158      1.117158   1.000000   1.000000
   86        1.205944      1.205944   1.000000   1.000000
   87        1.355663      1.355663   1.000000   1.000000
   88        1.379631      1.379631   1.000000   1.000000
   89        1.556092      1.556092   1.000000   1.000000
   90        1.630949      1.630949   1.000000   1.000000
   91        1.681301      1.681301   1.000000   1.000000
   92        1.769931      1.769931   1.000000   1.000000
   93        1.807751      1.807751   1.000000   1.000000
   94        1.873173      1.873173   1.000000   1.000000
   95        1.970374      1.970374   1.000000   1.000000
   96        2.025902      2.025902   1.000000   1.000000
   97        2.168993      2.168993   0.999999   0.999999
   98        2.249821      2.249821   0.999980   0.999980
   99        2.355304      2.355304   0.999676   0.999676
  100        2.423286      2.423286   0.998702   0.998702
  101        2.441683      2.441683   0.998227   0.998227
  102        2.572064      2.572064   0.995613   0.995613
  103        2.596910      2.596910   0.997734   0.997734
  104        2.661382      2.661382   1.014615   1.014615
  105        2.764980      2.764980   1.051409   1.051409
  106        2.932811      2.932811   0.599436   0.599436
  107        3.107995      3.107995  -0.038344  -0.038344
  108        3.261373      3.261373  -0.007641  -0.007641
  109        3.304677      3.304677   0.002020   0.002020
  110        3.669567      3.669567   0.000012   0.000012
  111        3.862355      3.862355   0.000000   0.000000
  112        3.883374      3.883374   0.000000   0.000000
  113        3.914043      3.914043   0.000000   0.000000
  114        3.981551      3.981551   0.000000   0.000000
  115        4.065198      4.065198   0.000000   0.000000
  116        4.129253      4.129253   0.000000   0.000000
  117        4.505805      4.505805   0.000000   0.000000
  118        5.061562      5.061562   0.000000   0.000000
  119        5.212737      5.212737   0.000000   0.000000
  120        5.816048      5.816048   0.000000   0.000000
  121        6.023595      6.023595   0.000000   0.000000
  122        6.990712      6.990712   0.000000   0.000000
  123        7.395771      7.395771   0.000000   0.000000
  124        7.474738      7.474738   0.000000   0.000000
  125        7.568260      7.568260   0.000000   0.000000
  126        7.676878      7.676878   0.000000   0.000000
  127        7.719459      7.719459   0.000000   0.000000
  128        7.742298      7.742298   0.000000   0.000000
  129        7.988163      7.988163   0.000000   0.000000
  130        8.044247      8.044247   0.000000   0.000000
  131        8.212315      8.212315   0.000000   0.000000
  132        8.304047      8.304047   0.000000   0.000000
  133        8.560158      8.560158   0.000000   0.000000
  134        8.628164      8.628164   0.000000   0.000000
  135        8.744738      8.744738   0.000000   0.000000
  136        8.887409      8.887409   0.000000   0.000000
 
  0.2500000E+00  0.3742002E-15  0.1262379E-14  0.6250000E-01
    1      -31.246631    -31.246631   1.000000   1.000000
    2      -31.215383    -31.215383   1.000000   1.000000
    3      -31.181782    -31.181782   1.000000   1.000000
    4      -31.140358    -31.140358   1.000000   1.000000
    5      -17.881440    -17.881440   1.000000   1.000000
    6      -17.427143    -17.427143   1.000000   1.000000
    7      -17.322009    -17.322009   1.000000   1.000000
    8      -17.223665    -17.223665   1.000000   1.000000
    9      -16.924665    -16.924665   1.000000   1.000000
   10      -16.802456    -16.802456   1.000000   1.000000
   11      -16.735702    -16.735702   1.000000   1.000000
   12      -16.701762    -16.701762   1.000000   1.000000
   13      -16.604104    -16.604104   1.000000   1.000000
   14      -16.520417    -16.520417   1.000000   1.000000
   15      -16.507898    -16.507898   1.000000   1.000000
   16      -16.258152    -16.258152   1.000000   1.000000
   17      -15.959725    -15.959725   1.000000   1.000000
   18      -15.802102    -15.802102   1.000000   1.000000
   19      -15.704850    -15.704850   1.000000   1.000000
   20      -15.619300    -15.619300   1.000000   1.000000
   21      -13.437556    -13.437556   1.000000   1.000000
   22      -13.363765    -13.363765   1.000000   1.000000
   23      -13.358019    -13.358019   1.000000   1.000000
   24      -13.301275    -13.301275   1.000000   1.000000
   25      -13.287870    -13.287870   1.000000   1.000000
   26      -13.261857    -13.261857   1.000000   1.000000
   27      -13.168545    -13.168545   1.000000   1.000000
   28      -13.096467    -13.096467   1.000000   1.000000
   29      -13.077504    -13.077504   1.000000   1.000000
   30      -12.907641    -12.907641   1.000000   1.000000
   31      -12.814475    -12.814475   1.000000   1.000000
   32      -12.736028    -12.736028   1.000000   1.000000
   33       -7.014955     -7.014955   1.000000   1.000000
   34       -6.241617     -6.241617   1.000000   1.000000
   35       -5.306789     -5.306789   1.000000   1.000000
   36       -5.111386     -5.111386   1.000000   1.000000
   37       -5.067369     -5.067369   1.000000   1.000000
   38       -4.991461     -4.991461   1.000000   1.000000
   39       -4.668541     -4.668541   1.000000   1.000000
   40       -4.636413     -4.636413   1.000000   1.000000
   41       -4.391430     -4.391430   1.000000   1.000000
   42       -4.334076     -4.334076   1.000000   1.000000
   43       -3.921001     -3.921001   1.000000   1.000000
   44       -3.758549     -3.758549   1.000000   1.000000
   45       -3.659087     -3.659087   1.000000   1.000000
   46       -3.522213     -3.522213   1.000000   1.000000
   47       -3.446273     -3.446273   1.000000   1.000000
   48       -3.389890     -3.389890   1.000000   1.000000
   49       -3.356008     -3.356008   1.000000   1.000000
   50       -3.261797     -3.261797   1.000000   1.000000
   51       -3.250021     -3.250021   1.000000   1.000000
   52       -3.048271     -3.048271   1.000000   1.000000
   53       -2.977079     -2.977079   1.000000   1.000000
   54       -2.917086     -2.917086   1.000000   1.000000
   55       -2.886088     -2.886088   1.000000   1.000000
   56       -2.856906     -2.856906   1.000000   1.000000
   57       -2.826249     -2.826249   1.000000   1.000000
   58       -2.776630     -2.776630   1.000000   1.000000
   59       -2.685225     -2.685225   1.000000   1.000000
   60       -2.566879     -2.566879   1.000000   1.000000
   61       -2.469273     -2.469273   1.000000   1.000000
   62       -2.262857     -2.262857   1.000000   1.000000
   63       -2.129841     -2.129841   1.000000   1.000000
   64       -2.049372     -2.049372   1.000000   1.000000
   65       -2.007061     -2.007061   1.000000   1.000000
   66       -1.972560     -1.972560   1.000000   1.000000
   67       -1.751764     -1.751764   1.000000   1.000000
   68       -1.632568     -1.632568   1.000000   1.000000
   69       -1.574203     -1.574203   1.000000   1.000000
   70       -1.527217     -1.527217   1.000000   1.000000
   71       -1.362862     -1.362862   1.000000   1.000000
   72       -1.220120     -1.220120   1.000000   1.000000
   73       -1.006771     -1.006771   1.000000   1.000000
   74       -0.909336     -0.909336   1.000000   1.000000
   75       -0.736539     -0.736539   1.000000   1.000000
   76       -0.680083     -0.680083   1.000000   1.000000
   77       -0.525305     -0.525305   1.000000   1.000000
   78       -0.381361     -0.381361   1.000000   1.000000
   79       -0.167796     -0.167796   1.000000   1.000000
   80       -0.061533     -0.061533   1.000000   1.000000
   81        0.648943      0.648943   1.000000   1.000000
   82        0.793510      0.793510   1.000000   1.000000
   83        0.910546      0.910546   1.000000   1.000000
   84        0.953520      0.953520   1.000000   1.000000
   85        1.140647      1.140647   1.000000   1.000000
   86        1.295677      1.295677   1.000000   1.000000
   87        1.316231      1.316231   1.000000   1.000000
   88        1.410014      1.410014   1.000000   1.000000
   89        1.503537      1.503537   1.000000   1.000000
   90        1.575388      1.575388   1.000000   1.000000
   91        1.591215      1.591215   1.000000   1.000000
   92        1.762172      1.762172   1.000000   1.000000
   93        1.793837      1.793837   1.000000   1.000000
   94        1.955086      1.955086   1.000000   1.000000
   95        2.108666      2.108666   1.000000   1.000000
   96        2.221872      2.221872   0.999992   0.999992
   97        2.258103      2.258103   0.999975   0.999975
   98        2.338550      2.338550   0.999782   0.999782
   99        2.445883      2.445883   0.998104   0.998104
  100        2.487939      2.487939   0.996644   0.996644
  101        2.582825      2.582825   0.996299   0.996299
  102        2.673826      2.673826   1.019898   1.019898
  103        2.709729      2.709729   1.036835   1.036835
  104        2.804096      2.804096   1.030176   1.030176
  105        2.823450      2.823450   1.003017   1.003017
  106        2.929871      2.929871   0.614610   0.614610
  107        3.121853      3.121853  -0.047065  -0.047065
  108        3.264500      3.264500  -0.006664  -0.006664
  109        3.341005      3.341005   0.004748   0.004748
  110        3.665595      3.665595   0.000014   0.000014
  111        3.758267      3.758267   0.000001   0.000001
  112        3.825270      3.825270   0.000000   0.000000
  113        3.880982      3.880982   0.000000   0.000000
  114        3.893027      3.893027   0.000000   0.000000
  115        3.960590      3.960590   0.000000   0.000000
  116        3.984597      3.984597   0.000000   0.000000
  117        4.503574      4.503574   0.000000   0.000000
  118        4.865273      4.865273   0.000000   0.000000
  119        5.173736      5.173736   0.000000   0.000000
  120        5.628346      5.628346   0.000000   0.000000
  121        5.713388      5.713388   0.000000   0.000000
  122        6.920666      6.920666   0.000000   0.000000
  123        7.282191      7.282191   0.000000   0.000000
  124        7.475336      7.475336   0.000000   0.000000
  125        7.666070      7.666070   0.000000   0.000000
  126        7.690566      7.690566   0.000000   0.000000
  127        7.874821      7.874821   0.000000   0.000000
  128        8.032244      8.032244   0.000000   0.000000
  129        8.059014      8.059014   0.000000   0.000000
  130        8.224271      8.224271   0.000000   0.000000
  131        8.371693      8.371693   0.000000   0.000000
  132        8.669913      8.669913   0.000000   0.000000
  133        8.757834      8.757834   0.000000   0.000000
  134        8.788211      8.788211   0.000000   0.000000
  135        8.811118      8.811118   0.000000   0.000000
  136        9.167290      9.167290   0.000000   0.000000
 
  0.5000000E+00  0.3742002E-15  0.1262379E-14  0.3125000E-01
    1      -31.246062    -31.246062   1.000000   1.000000
    2      -31.215006    -31.215006   1.000000   1.000000
    3      -31.181311    -31.181311   1.000000   1.000000
    4      -31.140012    -31.140012   1.000000   1.000000
    5      -17.924654    -17.924654   1.000000   1.000000
    6      -17.476051    -17.476051   1.000000   1.000000
    7      -17.364643    -17.364643   1.000000   1.000000
    8      -17.221747    -17.221747   1.000000   1.000000
    9      -16.915491    -16.915491   1.000000   1.000000
   10      -16.792913    -16.792913   1.000000   1.000000
   11      -16.775183    -16.775183   1.000000   1.000000
   12      -16.671103    -16.671103   1.000000   1.000000
   13      -16.591218    -16.591218   1.000000   1.000000
   14      -16.517052    -16.517052   1.000000   1.000000
   15      -16.500026    -16.500026   1.000000   1.000000
   16      -16.258261    -16.258261   1.000000   1.000000
   17      -15.968710    -15.968710   1.000000   1.000000
   18      -15.808010    -15.808010   1.000000   1.000000
   19      -15.716769    -15.716769   1.000000   1.000000
   20      -15.626713    -15.626713   1.000000   1.000000
   21      -13.407035    -13.407035   1.000000   1.000000
   22      -13.332997    -13.332997   1.000000   1.000000
   23      -13.301027    -13.301027   1.000000   1.000000
   24      -13.257677    -13.257677   1.000000   1.000000
   25      -13.247580    -13.247580   1.000000   1.000000
   26      -13.170268    -13.170268   1.000000   1.000000
   27      -13.163434    -13.163434   1.000000   1.000000
   28      -13.085855    -13.085855   1.000000   1.000000
   29      -13.037034    -13.037034   1.000000   1.000000
   30      -12.889292    -12.889292   1.000000   1.000000
   31      -12.819638    -12.819638   1.000000   1.000000
   32      -12.731627    -12.731627   1.000000   1.000000
   33       -7.025480     -7.025480   1.000000   1.000000
   34       -6.241694     -6.241694   1.000000   1.000000
   35       -5.332968     -5.332968   1.000000   1.000000
   36       -5.114615     -5.114615   1.000000   1.000000
   37       -5.082058     -5.082058   1.000000   1.000000
   38       -5.023165     -5.023165   1.000000   1.000000
   39       -4.710157     -4.710157   1.000000   1.000000
   40       -4.643063     -4.643063   1.000000   1.000000
   41       -4.438371     -4.438371   1.000000   1.000000
   42       -4.378869     -4.378869   1.000000   1.000000
   43       -4.058575     -4.058575   1.000000   1.000000
   44       -3.879291     -3.879291   1.000000   1.000000
   45       -3.678675     -3.678675   1.000000   1.000000
   46       -3.658881     -3.658881   1.000000   1.000000
   47       -3.570725     -3.570725   1.000000   1.000000
   48       -3.448598     -3.448598   1.000000   1.000000
   49       -3.386997     -3.386997   1.000000   1.000000
   50       -3.338235     -3.338235   1.000000   1.000000
   51       -3.267149     -3.267149   1.000000   1.000000
   52       -3.200545     -3.200545   1.000000   1.000000
   53       -3.016597     -3.016597   1.000000   1.000000
   54       -2.947187     -2.947187   1.000000   1.000000
   55       -2.930727     -2.930727   1.000000   1.000000
   56       -2.878792     -2.878792   1.000000   1.000000
   57       -2.827784     -2.827784   1.000000   1.000000
   58       -2.805873     -2.805873   1.000000   1.000000
   59       -2.705165     -2.705165   1.000000   1.000000
   60       -2.581757     -2.581757   1.000000   1.000000
   61       -2.376618     -2.376618   1.000000   1.000000
   62       -2.354324     -2.354324   1.000000   1.000000
   63       -2.227175     -2.227175   1.000000   1.000000
   64       -2.075191     -2.075191   1.000000   1.000000
   65       -2.019769     -2.019769   1.000000   1.000000
   66       -1.995190     -1.995190   1.000000   1.000000
   67       -1.689367     -1.689367   1.000000   1.000000
   68       -1.545317     -1.545317   1.000000   1.000000
   69       -1.453316     -1.453316   1.000000   1.000000
   70       -1.387874     -1.387874   1.000000   1.000000
   71       -1.341488     -1.341488   1.000000   1.000000
   72       -1.189678     -1.189678   1.000000   1.000000
   73       -1.036503     -1.036503   1.000000   1.000000
   74       -0.885184     -0.885184   1.000000   1.000000
   75       -0.802811     -0.802811   1.000000   1.000000
   76       -0.719975     -0.719975   1.000000   1.000000
   77       -0.490933     -0.490933   1.000000   1.000000
   78       -0.353418     -0.353418   1.000000   1.000000
   79       -0.145168     -0.145168   1.000000   1.000000
   80       -0.007196     -0.007196   1.000000   1.000000
   81        0.733340      0.733340   1.000000   1.000000
   82        0.779309      0.779309   1.000000   1.000000
   83        0.899945      0.899945   1.000000   1.000000
   84        1.033495      1.033495   1.000000   1.000000
   85        1.186195      1.186195   1.000000   1.000000
   86        1.256248      1.256248   1.000000   1.000000
   87        1.419041      1.419041   1.000000   1.000000
   88        1.495149      1.495149   1.000000   1.000000
   89        1.567593      1.567593   1.000000   1.000000
   90        1.653606      1.653606   1.000000   1.000000
   91        1.692585      1.692585   1.000000   1.000000
   92        1.793671      1.793671   1.000000   1.000000
   93        1.821684      1.821684   1.000000   1.000000
   94        1.909964      1.909964   1.000000   1.000000
   95        1.931667      1.931667   1.000000   1.000000
   96        2.158301      2.158301   0.999999   0.999999
   97        2.250288      2.250288   0.999980   0.999980
   98        2.330764      2.330764   0.999819   0.999819
   99        2.532950      2.532950   0.995211   0.995211
  100        2.593845      2.593845   0.997365   0.997365
  101        2.680985      2.680985   1.023155   1.023155
  102        2.779764      2.779764   1.047861   1.047861
  103        2.808359      2.808359   1.025276   1.025276
  104        2.911639      2.911639   0.705626   0.705626
  105        3.004773      3.004773   0.234276   0.234276
  106        3.042616      3.042616   0.088546   0.088546
  107        3.224127      3.224127  -0.022403  -0.022403
  108        3.330270      3.330270   0.004328   0.004328
  109        3.592909      3.592909   0.000108   0.000108
  110        3.665694      3.665694   0.000014   0.000014
  111        3.687934      3.687934   0.000007   0.000007
  112        3.744259      3.744259   0.000001   0.000001
  113        3.790394      3.790394   0.000000   0.000000
  114        3.895424      3.895424   0.000000   0.000000
  115        3.901020      3.901020   0.000000   0.000000
  116        3.914396      3.914396   0.000000   0.000000
  117        4.398112      4.398112   0.000000   0.000000
  118        4.649096      4.649096   0.000000   0.000000
  119        5.035684      5.035684   0.000000   0.000000
  120        5.135363      5.135363   0.000000   0.000000
  121        5.619791      5.619791   0.000000   0.000000
  122        6.595182      6.595182   0.000000   0.000000
  123        6.909110      6.909110   0.000000   0.000000
  124        7.556311      7.556311   0.000000   0.000000
  125        7.881030      7.881030   0.000000   0.000000
  126        7.954966      7.954966   0.000000   0.000000
  127        8.189167      8.189167   0.000000   0.000000
  128        8.311465      8.311465   0.000000   0.000000
  129        8.341076      8.341076   0.000000   0.000000
  130        8.376587      8.376587   0.000000   0.000000
  131        8.401268      8.401268   0.000000   0.000000
  132        8.594115      8.594115   0.000000   0.000000
  133        8.902373      8.902373   0.000000   0.000000
  134        8.927428      8.927428   0.000000   0.000000
  135        9.108986      9.108986   0.000000   0.000000
  136        9.193707      9.193707   0.000000   0.000000
 
  0.3742002E-15  0.2500000E+00  0.1262379E-14  0.6250000E-01
    1      -31.246876    -31.246876   1.000000   1.000000
    2      -31.215629    -31.215629   1.000000   1.000000
    3      -31.181988    -31.181988   1.000000   1.000000
    4      -31.140578    -31.140578   1.000000   1.000000
    5      -17.834776    -17.834776   1.000000   1.000000
    6      -17.373933    -17.373933   1.000000   1.000000
    7      -17.296761    -17.296761   1.000000   1.000000
    8      -17.245690    -17.245690   1.000000   1.000000
    9      -16.943282    -16.943282   1.000000   1.000000
   10      -16.825245    -16.825245   1.000000   1.000000
   11      -16.696710    -16.696710   1.000000   1.000000
   12      -16.686926    -16.686926   1.000000   1.000000
   13      -16.602806    -16.602806   1.000000   1.000000
   14      -16.525770    -16.525770   1.000000   1.000000
   15      -16.462083    -16.462083   1.000000   1.000000
   16      -16.285741    -16.285741   1.000000   1.000000
   17      -16.017149    -16.017149   1.000000   1.000000
   18      -15.852311    -15.852311   1.000000   1.000000
   19      -15.680753    -15.680753   1.000000   1.000000
   20      -15.637404    -15.637404   1.000000   1.000000
   21      -13.474679    -13.474679   1.000000   1.000000
   22      -13.440892    -13.440892   1.000000   1.000000
   23      -13.407459    -13.407459   1.000000   1.000000
   24      -13.376378    -13.376378   1.000000   1.000000
   25      -13.264244    -13.264244   1.000000   1.000000
   26      -13.253973    -13.253973   1.000000   1.000000
   27      -13.167049    -13.167049   1.000000   1.000000
   28      -13.099148    -13.099148   1.000000   1.000000
   29      -13.056013    -13.056013   1.000000   1.000000
   30      -12.902865    -12.902865   1.000000   1.000000
   31      -12.800554    -12.800554   1.000000   1.000000
   32      -12.732157    -12.732157   1.000000   1.000000
   33       -7.004609     -7.004609   1.000000   1.000000
   34       -6.248476     -6.248476   1.000000   1.000000
   35       -5.281656     -5.281656   1.000000   1.000000
   36       -5.108221     -5.108221   1.000000   1.000000
   37       -5.051695     -5.051695   1.000000   1.000000
   38       -4.748892     -4.748892   1.000000   1.000000
   39       -4.667409     -4.667409   1.000000   1.000000
   40       -4.434145     -4.434145   1.000000   1.000000
   41       -4.387352     -4.387352   1.000000   1.000000
   42       -4.333612     -4.333612   1.000000   1.000000
   43       -3.903962     -3.903962   1.000000   1.000000
   44       -3.739727     -3.739727   1.000000   1.000000
   45       -3.600383     -3.600383   1.000000   1.000000
   46       -3.571803     -3.571803   1.000000   1.000000
   47       -3.440132     -3.440132   1.000000   1.000000
   48       -3.369379     -3.369379   1.000000   1.000000
   49       -3.344428     -3.344428   1.000000   1.000000
   50       -3.305968     -3.305968   1.000000   1.000000
   51       -3.221955     -3.221955   1.000000   1.000000
   52       -3.200732     -3.200732   1.000000   1.000000
   53       -3.036048     -3.036048   1.000000   1.000000
   54       -3.019785     -3.019785   1.000000   1.000000
   55       -2.958585     -2.958585   1.000000   1.000000
   56       -2.913188     -2.913188   1.000000   1.000000
   57       -2.875868     -2.875868   1.000000   1.000000
   58       -2.809607     -2.809607   1.000000   1.000000
   59       -2.742312     -2.742312   1.000000   1.000000
   60       -2.555179     -2.555179   1.000000   1.000000
   61       -2.446135     -2.446135   1.000000   1.000000
   62       -2.228637     -2.228637   1.000000   1.000000
   63       -2.137704     -2.137704   1.000000   1.000000
   64       -1.910677     -1.910677   1.000000   1.000000
   65       -1.805512     -1.805512   1.000000   1.000000
   66       -1.782981     -1.782981   1.000000   1.000000
   67       -1.707309     -1.707309   1.000000   1.000000
   68       -1.647218     -1.647218   1.000000   1.000000
   69       -1.594044     -1.594044   1.000000   1.000000
   70       -1.490337     -1.490337   1.000000   1.000000
   71       -1.362008     -1.362008   1.000000   1.000000
   72       -1.230526     -1.230526   1.000000   1.000000
   73       -0.980016     -0.980016   1.000000   1.000000
   74       -0.857996     -0.857996   1.000000   1.000000
   75       -0.753099     -0.753099   1.000000   1.000000
   76       -0.622651     -0.622651   1.000000   1.000000
   77       -0.539959     -0.539959   1.000000   1.000000
   78       -0.377866     -0.377866   1.000000   1.000000
   79       -0.022045     -0.022045   1.000000   1.000000
   80        0.030752      0.030752   1.000000   1.000000
   81        0.368768      0.368768   1.000000   1.000000
   82        0.849445      0.849445   1.000000   1.000000
   83        0.980462      0.980462   1.000000   1.000000
   84        1.038174      1.038174   1.000000   1.000000
   85        1.108213      1.108213   1.000000   1.000000
   86        1.160159      1.160159   1.000000   1.000000
   87        1.278666      1.278666   1.000000   1.000000
   88        1.337713      1.337713   1.000000   1.000000
   89        1.395616      1.395616   1.000000   1.000000
   90        1.558219      1.558219   1.000000   1.000000
   91        1.652214      1.652214   1.000000   1.000000
   92        1.715646      1.715646   1.000000   1.000000
   93        1.803455      1.803455   1.000000   1.000000
   94        1.852336      1.852336   1.000000   1.000000
   95        1.917896      1.917896   1.000000   1.000000
   96        2.012070      2.012070   1.000000   1.000000
   97        2.185795      2.185795   0.999997   0.999997
   98        2.270302      2.270302   0.999964   0.999964
   99        2.291621      2.291621   0.999935   0.999935
  100        2.510264      2.510264   0.995830   0.995830
  101        2.655434      2.655434   1.012294   1.012294