       N       E                     dE             d eps       ncg     rms          rms(c)
DAV:   1     0.173835727530E+04    0.17384E+04   -0.85574E+04 10928   0.117E+03
DAV:   2     0.381851235008E+02   -0.17002E+04   -0.15984E+04 11256   0.361E+02
DAV:   3    -0.195633490433E+03   -0.23382E+03   -0.22303E+03 14512   0.132E+02
DAV:   4    -0.208238619446E+03   -0.12605E+02   -0.12409E+02 14552   0.313E+01
DAV:   5    -0.209011207920E+03   -0.77259E+00   -0.77104E+00 19032   0.577E+00    0.102E+02
RMM:   6    -0.211561701767E+03   -0.25505E+01   -0.29769E+02 10973   0.423E+01    0.144E+02
RMM:   7    -0.189163374439E+03    0.22398E+02   -0.20918E+01 12740   0.103E+01    0.107E+02
RMM:   8    -0.181264391139E+03    0.78990E+01   -0.12436E+02 10939   0.271E+01    0.455E+01
RMM:   9    -0.199172130416E+03   -0.17908E+02   -0.44571E+01 11143   0.180E+01    0.659E+01
RMM:  10    -0.186620831420E+03    0.12551E+02   -0.44955E+00 12061   0.431E+00    0.459E+01
RMM:  11    -0.175892202459E+03    0.10729E+02   -0.11610E+01 10882   0.821E+00    0.280E+01
RMM:  12    -0.171145182145E+03    0.47470E+01   -0.24771E+00 11444   0.342E+00    0.171E+01
RMM:  13    -0.170134689798E+03    0.10105E+01   -0.15529E+00 11003   0.297E+00    0.130E+01
RMM:  14    -0.169344686808E+03    0.79000E+00   -0.11032E+00 11289   0.238E+00    0.415E+00
RMM:  15    -0.169658462585E+03   -0.31378E+00   -0.54412E-01 11351   0.168E+00    0.494E+00
RMM:  16    -0.169813817345E+03   -0.15535E+00   -0.26206E-01 11309   0.111E+00    0.362E+00
RMM:  17    -0.169969296531E+03   -0.15548E+00   -0.22067E-01 11152   0.981E-01    0.358E+00
RMM:  18    -0.169957843064E+03    0.11453E-01   -0.67536E-02 11165   0.562E-01    0.320E+00
RMM:  19    -0.169914873169E+03    0.42970E-01   -0.21630E-02 11269   0.320E-01    0.121E+00
RMM:  20    -0.169912750252E+03    0.21229E-02   -0.91454E-03 11232   0.229E-01    0.109E+00
RMM:  21    -0.169911090703E+03    0.16595E-02   -0.39152E-03 11579   0.142E-01    0.897E-01
RMM:  22    -0.169911554564E+03   -0.46386E-03   -0.21720E-03 11543   0.104E-01    0.845E-01
RMM:  23    -0.169911337211E+03    0.21735E-03   -0.78260E-04 11784   0.643E-02    0.768E-01
RMM:  24    -0.169911048576E+03    0.28864E-03   -0.52381E-04 10874   0.548E-02    0.687E-01
RMM:  25    -0.169911935277E+03   -0.88670E-03   -0.88486E-04 10948   0.673E-02    0.556E-01
RMM:  26    -0.169911856113E+03    0.79165E-04   -0.77253E-05 10468   0.277E-02    0.562E-01
RMM:  27    -0.169912080962E+03   -0.22485E-03   -0.83123E-05 10435   0.193E-02    0.543E-01
RMM:  28    -0.169912799871E+03   -0.71891E-03   -0.35172E-04 10309   0.472E-02    0.504E-01
RMM:  29    -0.169913136232E+03   -0.33636E-03   -0.10990E-04 10577   0.228E-02    0.501E-01
RMM:  30    -0.169909696801E+03    0.34394E-02   -0.31442E-03 10720   0.127E-01    0.615E-01
RMM:  31    -0.169908360717E+03    0.13361E-02   -0.17388E-03 10779   0.937E-02    0.635E-01
RMM:  32    -0.169906602723E+03    0.17580E-02   -0.30153E-03 10770   0.119E-01    0.559E-01
RMM:  33    -0.169905374489E+03    0.12282E-02   -0.28562E-03 11125   0.118E-01    0.451E-01
RMM:  34    -0.169904972822E+03    0.40167E-03   -0.13519E-03 11647   0.775E-02    0.428E-01
RMM:  35    -0.169905371579E+03   -0.39876E-03   -0.34585E-04 10566   0.569E-02    0.498E-01
RMM:  36    -0.169905306911E+03    0.64668E-04   -0.39965E-05  8463   0.168E-02    0.488E-01
RMM:  37    -0.169905323270E+03   -0.16359E-04   -0.59155E-06  6405   0.715E-03    0.486E-01
RMM:  38    -0.169905319567E+03    0.37034E-05   -0.12206E-05  6529   0.941E-03
   1 F= -.16990532E+03 E0= -.16990975E+03  d E =-.169905E+03  mag=     1.4424
       N       E                     dE             d eps       ncg     rms          rms(c)
DAV:   1    -0.216494389415E+03   -0.46589E+02   -0.17263E+03 12032   0.145E+02    0.881E+01
RMM:   2    -0.180705374661E+03    0.35789E+02   -0.14761E+02 10880   0.358E+01    0.545E+01
RMM:   3    -0.222115497902E+03   -0.41410E+02   -0.82945E+01 11109   0.258E+01    0.118E+02
RMM:   4    -0.187006128706E+03    0.35109E+02   -0.54323E+00 11180   0.663E+00    0.622E+01
RMM:   5    -0.172165660732E+03    0.14840E+02   -0.14533E+01 11070   0.971E+00    0.283E+01
RMM:   6    -0.171653782702E+03    0.51188E+00   -0.33712E+00 11196   0.497E+00    0.182E+01
RMM:   7    -0.170351490697E+03    0.13023E+01   -0.98793E-01 11470   0.247E+00    0.146E+01
RMM:   8    -0.169872502017E+03    0.47899E+00   -0.50981E-01 13278   0.165E+00    0.575E+00
RMM:   9    -0.169865761507E+03    0.67405E-02   -0.18633E-01 13489   0.114E+00    0.545E+00
RMM:  10    -0.169853023375E+03    0.12738E-01   -0.93523E-02 15019   0.696E-01    0.459E+00
RMM:  11    -0.169877491512E+03   -0.24468E-01   -0.66886E-02 14790   0.597E-01    0.357E+00
RMM:  12    -0.169859007051E+03    0.18484E-01   -0.54163E-02 14084   0.558E-01    0.206E+00
RMM:  13    -0.169861532212E+03   -0.25252E-02   -0.20334E-02 15977   0.312E-01    0.170E+00
RMM:  14    -0.169853419839E+03    0.81124E-02   -0.92033E-03 16117   0.206E-01    0.115E+00
RMM:  15    -0.169851420252E+03    0.19996E-02   -0.44152E-03 15942   0.140E-01    0.901E-01
RMM:  16    -0.169849648417E+03    0.17718E-02   -0.22540E-03 15561   0.104E-01    0.529E-01
RMM:  17    -0.169849456393E+03    0.19202E-03   -0.88303E-04 15182   0.728E-02    0.384E-01
RMM:  18    -0.169849442886E+03    0.13507E-04   -0.45445E-04 14804   0.477E-02    0.277E-01
RMM:  19    -0.169849303267E+03    0.13962E-03   -0.23430E-04 13971   0.347E-02    0.124E-01
RMM:  20    -0.169849323316E+03   -0.20049E-04   -0.71909E-05 11849   0.200E-02    0.768E-02
RMM:  21    -0.169849329164E+03   -0.58478E-05   -0.37184E-05 10028   0.138E-02
   2 F= -.16984933E+03 E0= -.16985139E+03  d E =0.559904E-01  mag=     0.0307
       N       E                     dE             d eps       ncg     rms          rms(c)
DAV:   1    -0.183342192040E+03   -0.13493E+02   -0.45819E+02 11936   0.761E+01    0.290E+01
RMM:   2    -0.181802848546E+03    0.15393E+01   -0.32026E+01 10897   0.165E+01    0.514E+01
RMM:   3    -0.175332648122E+03    0.64702E+01   -0.67826E+00 11218   0.744E+00    0.300E+01
RMM:   4    -0.172483072601E+03    0.28496E+01   -0.19093E+00 11420   0.394E+00    0.206E+01
RMM:   5    -0.173764077511E+03   -0.12810E+01   -0.12998E+00 11055   0.298E+00    0.208E+01
RMM:   6    -0.173608024340E+03    0.15605E+00   -0.32495E+00 11048   0.449E+00    0.204E+01
RMM:   7    -0.172554179436E+03    0.10538E+01   -0.90878E-01 11218   0.250E+00    0.120E+01
RMM:   8    -0.172072039970E+03    0.48214E+00   -0.25971E-01 11762   0.133E+00    0.614E+00
RMM:   9    -0.171978914529E+03    0.93125E-01   -0.15445E-01 11589   0.983E-01    0.514E+00
RMM:  10    -0.171933948373E+03    0.44966E-01   -0.58569E-02 11789   0.606E-01    0.377E+00
RMM:  11    -0.171920336683E+03    0.13612E-01   -0.50875E-02 11086   0.568E-01    0.349E+00
RMM:  12    -0.171900484416E+03    0.19852E-01   -0.15107E-02 12226   0.289E-01    0.249E+00
RMM:  13    -0.171890272977E+03    0.10211E-01   -0.13114E-02 11054   0.279E-01    0.175E+00
RMM:  14    -0.171877174705E+03    0.13098E-01   -0.69141E-03 11180   0.219E-01    0.772E-01
RMM:  15    -0.171875305272E+03    0.18694E-02   -0.23844E-03 11307   0.124E-01    0.434E-01
RMM:  16    -0.171875017387E+03    0.28789E-03   -0.74366E-04 12366   0.602E-02    0.416E-01
RMM:  17    -0.171874245912E+03    0.77147E-03   -0.25611E-04 11835   0.380E-02    0.222E-01
RMM:  18    -0.171874110295E+03    0.13562E-03   -0.16541E-04 10824   0.315E-02    0.179E-01
RMM:  19    -0.171874048855E+03    0.61441E-04   -0.70851E-05  9853   0.206E-02    0.112E-01
RMM:  20    -0.171874011511E+03    0.37344E-04   -0.21330E-05  7530   0.130E-02    0.613E-02
RMM:  21    -0.171873996818E+03    0.14693E-04   -0.10065E-05  6413   0.903E-03    0.301E-02
RMM:  22    -0.171873993955E+03    0.28623E-05   -0.48767E-06  6201   0.681E-03
   3 F= -.17187399E+03 E0= -.17187778E+03  d E =-.196867E+01  mag=     0.0035
       N       E                     dE             d eps       ncg     rms          rms(c)
DAV:   1    -0.170643493446E+03    0.12305E+01   -0.11869E+03 10880   0.970E+01    0.184E+01
RMM:   2    -0.190415287350E+03   -0.19772E+02   -0.72567E+01 10915   0.243E+01    0.574E+01
RMM:   3    -0.178871357472E+03    0.11544E+02   -0.37255E+00 11131   0.739E+00    0.427E+01
RMM:   4    -0.179350023219E+03   -0.47867E+00   -0.13141E+00 11242   0.291E+00    0.390E+01
RMM:   5    -0.175719901825E+03    0.36301E+01   -0.14787E+00 10881   0.304E+00    0.294E+01
RMM:   6    -0.174963888707E+03    0.75601E+00   -0.17147E+00 10902   0.324E+00    0.201E+01
RMM:   7    -0.174698615530E+03    0.26527E+00   -0.28225E+00 11060   0.421E+00    0.120E+01
RMM:   8    -0.173914270894E+03    0.78434E+00   -0.29815E-01 11316   0.149E+00    0.932E+00
RMM:   9    -0.174153000122E+03   -0.23873E+00   -0.57411E-01 11185   0.183E+00    0.108E+01
RMM:  10    -0.173906028095E+03    0.24697E+00   -0.12788E-01 11624   0.978E-01    0.897E+00
RMM:  11    -0.173842032193E+03    0.63996E-01   -0.23383E-02 13829   0.295E-01    0.842E+00
RMM:  12    -0.173722840180E+03    0.11919E+00   -0.16573E-02 10988   0.311E-01    0.704E+00
RMM:  13    -0.173636564231E+03    0.86276E-01   -0.24686E-02 10926   0.379E-01    0.545E+00
RMM:  14    -0.173572167091E+03    0.64397E-01   -0.15927E-02 11149   0.295E-01    0.389E+00
RMM:  15    -0.173539221142E+03    0.32946E-01   -0.98640E-03 11317   0.233E-01    0.289E+00
RMM:  16    -0.173515292615E+03    0.23929E-01   -0.80427E-03 11510   0.204E-01    0.190E+00
RMM:  17    -0.173514666111E+03    0.62650E-03   -0.14849E-03 13046   0.824E-02    0.182E+00
RMM:  18    -0.173509685754E+03    0.49804E-02   -0.11206E-03 11544   0.705E-02    0.135E+00
RMM:  19    -0.173506038363E+03    0.36474E-02   -0.10614E-03 11118   0.759E-02    0.944E-01
RMM:  20    -0.173503541100E+03    0.24973E-02   -0.12921E-03 11343   0.801E-02    0.465E-01
RMM:  21    -0.173503409864E+03    0.13124E-03   -0.25748E-04 11932   0.336E-02    0.404E-01
RMM:  22    -0.173503260370E+03    0.14949E-03   -0.89388E-05 10910   0.185E-02    0.281E-01
RMM:  23    -0.173503100098E+03    0.16027E-03   -0.19607E-04 11001   0.312E-02    0.871E-02
RMM:  24    -0.173503106580E+03   -0.64819E-05   -0.75324E-05  9897   0.227E-02
   4 F= -.17350311E+03 E0= -.17350656E+03  d E =-.162911E+01  mag=    -0.0001
       N       E                     dE             d eps       ncg     rms          rms(c)
DAV:   1    -0.173511757874E+03   -0.86578E-02   -0.34757E+01 10880   0.166E+01    0.327E+00
RMM:   2    -0.174525765960E+03   -0.10140E+01   -0.15788E+00 10902   0.368E+00    0.159E+01
RMM:   3    -0.173679709521E+03    0.84606E+00   -0.12298E-01 11042   0.123E+00    0.754E+00
RMM:   4    -0.173684644337E+03   -0.49348E-02   -0.14232E-02 13532   0.275E-01    0.769E+00
RMM:   5    -0.173671459867E+03    0.13184E-01   -0.51998E-03 11143   0.181E-01    0.716E+00
RMM:   6    -0.173588536381E+03    0.82923E-01   -0.80630E-02 11044   0.706E-01    0.269E+00
RMM:   7    -0.173582944766E+03    0.55916E-02   -0.45933E-02 11134   0.538E-01    0.253E+00
RMM:   8    -0.173551263085E+03    0.31682E-01   -0.12722E-02 11148   0.296E-01    0.107E+00
RMM:   9    -0.173549227988E+03    0.20351E-02   -0.29549E-03 11973   0.123E-01    0.883E-01
RMM:  10    -0.173548822523E+03    0.40546E-03   -0.56228E-04 12140   0.515E-02    0.778E-01
RMM:  11    -0.173547785330E+03    0.10372E-02   -0.21550E-03 10882   0.117E-01    0.435E-01
RMM:  12    -0.173547305652E+03    0.47968E-03   -0.55317E-04 11194   0.638E-02    0.232E-01
RMM:  13    -0.173547296268E+03    0.93842E-05   -0.22988E-04 11496   0.338E-02    0.152E-01
RMM:  14    -0.173547293071E+03    0.31967E-05   -0.43383E-05  7937   0.191E-02
   5 F= -.17354729E+03 E0= -.17355029E+03  d E =-.167330E+01  mag=    -0.0000
       N       E                     dE             d eps       ncg     rms          rms(c)
DAV:   1    -0.173651040961E+03   -0.10374E+00   -0.10420E+03 10896   0.937E+01    0.195E+01
RMM:   2    -0.187783444854E+03   -0.14132E+02   -0.42783E+01 10915   0.192E+01    0.522E+01
RMM:   3    -0.177567105257E+03    0.10216E+02   -0.28368E+00 11181   0.595E+00    0.348E+01
RMM:   4    -0.177468976159E+03    0.98129E-01   -0.38103E-01 15632   0.138E+00    0.342E+01
RMM:   5    -0.177668436673E+03   -0.19946E+00   -0.15473E+00 10978   0.306E+00    0.335E+01
RMM:   6    -0.175150033712E+03    0.25184E+01   -0.19071E+00 10880   0.337E+00    0.219E+01
RMM:   7    -0.175875338170E+03   -0.72530E+00   -0.22530E+00 11042   0.380E+00    0.253E+01
RMM:   8    -0.174868326532E+03    0.10070E+01   -0.16778E+00 11068   0.320E+00    0.161E+01
RMM:   9    -0.175139564447E+03   -0.27124E+00   -0.51909E-01 11301   0.191E+00    0.168E+01
RMM:  10    -0.174895488915E+03    0.24408E+00   -0.12575E-01 11713   0.887E-01    0.149E+01
RMM:  11    -0.174760139375E+03    0.13535E+00   -0.37558E-02 12182   0.488E-01    0.134E+01
RMM:  12    -0.174543679208E+03    0.21646E+00   -0.96905E-02 10921   0.757E-01    0.118E+01
RMM:  13    -0.174242006349E+03    0.30167E+00   -0.26170E-01 10913   0.130E+00    0.825E+00
RMM:  14    -0.174126058554E+03    0.11595E+00   -0.12129E-01 11191   0.976E-01    0.563E+00
RMM:  15    -0.174092780095E+03    0.33278E-01   -0.47417E-02 12803   0.500E-01    0.445E+00
RMM:  16    -0.174057485284E+03    0.35295E-01   -0.53093E-02 11097   0.603E-01    0.239E+00
RMM:  17    -0.174060821304E+03   -0.33360E-02   -0.59696E-02 11204   0.649E-01    0.194E+00
RMM:  18    -0.174064124798E+03   -0.33035E-02   -0.27590E-02 12229   0.412E-01    0.219E+00
RMM:  19    -0.174062928464E+03    0.11963E-02   -0.43106E-03 13454   0.157E-01    0.207E+00
RMM:  20    -0.174050527791E+03    0.12401E-01   -0.75425E-03 10880   0.231E-01    0.111E+00
RMM:  21    -0.174047344963E+03    0.31828E-02   -0.41838E-03 11094   0.181E-01    0.630E-01
RMM:  22    -0.174046820390E+03    0.52457E-03   -0.14093E-03 12547   0.882E-02    0.425E-01
RMM:  23    -0.174046217880E+03    0.60251E-03   -0.16888E-03 11061   0.110E-01    0.927E-02
RMM:  24    -0.174046213121E+03    0.47594E-05   -0.12077E-04 10503   0.354E-02    0.786E-02
RMM:  25    -0.174046216850E+03   -0.37293E-05   -0.13023E-05  6586   0.965E-03
   6 F= -.17404622E+03 E0= -.17404318E+03  d E =-.498924E+00  mag=    -0.0007
       N       E                     dE             d eps       ncg     rms          rms(c)
DAV:   1    -0.174470905603E+03   -0.42469E+00   -0.17677E+02 10880   0.377E+01    0.856E+00
RMM:   2    -0.178687528823E+03   -0.42166E+01   -0.82247E+00 10894   0.825E+00    0.316E+01
RMM:   3    -0.175131202560E+03    0.35563E+01   -0.65326E-01 11212   0.284E+00    0.164E+01
RMM:   4    -0.175377996237E+03   -0.24679E+00   -0.27297E-01 11230   0.124E+00    0.178E+01
RMM:   5    -0.175310809336E+03    0.67187E-01   -0.26909E-01 10886   0.125E+00    0.162E+01
RMM:   6    -0.174660830762E+03    0.64998E+00   -0.42581E-01 11044   0.168E+00    0.788E+00
RMM:   7    -0.174501389869E+03    0.15944E+00   -0.23430E-01 11124   0.130E+00    0.533E+00
RMM:   8    -0.174387105797E+03    0.11428E+00   -0.77886E-02 11404   0.686E-01    0.250E+00
RMM:   9    -0.174372527146E+03    0.14579E-01   -0.13373E-02 12781   0.257E-01    0.198E+00
RMM:  10    -0.174367569040E+03    0.49581E-02   -0.97314E-03 11083   0.242E-01    0.170E+00
RMM:  11    -0.174359663449E+03    0.79056E-02   -0.90056E-03 11091   0.235E-01    0.124E+00
RMM:  12    -0.174355899385E+03    0.37641E-02   -0.32624E-03 11086   0.144E-01    0.902E-01
RMM:  13    -0.174354719719E+03    0.11797E-02   -0.14706E-03 12071   0.872E-02    0.659E-01
RMM:  14    -0.174353602703E+03    0.11170E-02   -0.52473E-04 10854   0.583E-02    0.422E-01
RMM:  15    -0.174353282930E+03    0.31977E-03   -0.11541E-03 10977   0.853E-02    0.241E-01
RMM:  16    -0.174353008174E+03    0.27476E-03   -0.20098E-04 10570   0.364E-02    0.116E-01
RMM:  17    -0.174352988962E+03    0.19212E-04   -0.33636E-05  8024   0.147E-02    0.926E-02
RMM:  18    -0.174352973337E+03    0.15625E-04   -0.21468E-05  7142   0.135E-02    0.489E-02
RMM:  19    -0.174352961843E+03    0.11494E-04   -0.94752E-06  6381   0.986E-03    0.212E-02
RMM:  20    -0.174352959645E+03    0.21979E-05   -0.40374E-06  5748   0.629E-03
   7 F= -.17435296E+03 E0= -.17435390E+03  d E =-.805667E+00  mag=    -0.0001
       N       E                     dE             d eps       ncg     rms          rms(c)
DAV:   1    -0.174375538945E+03   -0.22577E-01   -0.63829E+00 10976   0.720E+00    0.166E+00
RMM:   2    -0.174515348112E+03   -0.13981E+00   -0.27286E-01 10893   0.152E+00    0.592E+00
RMM:   3    -0.174397446747E+03    0.11790E+00   -0.21352E-02 11277   0.502E-01    0.307E+00
RMM:   4    -0.174420183700E+03   -0.22737E-01   -0.81864E-03 11058   0.231E-01    0.367E+00
RMM:   5    -0.174418956594E+03    0.12271E-02   -0.12477E-02 10950   0.284E-01    0.323E+00
RMM:   6    -0.174377434201E+03    0.41522E-01   -0.18226E-02 11046   0.352E-01    0.812E-01
RMM:   7    -0.174374161324E+03    0.32729E-02   -0.63347E-03 11172   0.211E-01    0.528E-01
RMM:   8    -0.174372701171E+03    0.14602E-02   -0.17120E-03 12193   0.897E-02    0.269E-01
RMM:   9    -0.174372565625E+03    0.13555E-03   -0.30602E-04 11201   0.402E-02    0.216E-01
RMM:  10    -0.174372448642E+03    0.11698E-03   -0.85337E-05 10368   0.209E-02    0.131E-01
RMM:  11    -0.174372476543E+03   -0.27901E-04   -0.22894E-04 10726   0.406E-02    0.950E-02
RMM:  12    -0.174372453394E+03    0.23148E-04   -0.41592E-05  8339   0.198E-02    0.630E-02
RMM:  13    -0.174372429880E+03    0.23514E-04   -0.16146E-05  6531   0.132E-02    0.231E-02
RMM:  14    -0.174372428517E+03    0.13630E-05   -0.57508E-06  6136   0.883E-03
   8 F= -.17437243E+03 E0= -.17437411E+03  d E =-.825135E+00  mag=    -0.0000
       N       E                     dE             d eps       ncg     rms          rms(c)
DAV:   1    -0.175299652393E+03   -0.92722E+00   -0.16408E+02 10880   0.385E+01    0.855E+00
RMM:   2    -0.176022740517E+03   -0.72309E+00   -0.60400E+00 10880   0.767E+00    0.133E+01
RMM:   3    -0.175243142860E+03    0.77960E+00   -0.10493E+00 11150   0.271E+00    0.917E+00
RMM:   4    -0.174997857641E+03    0.24529E+00   -0.28332E-01 10958   0.147E+00    0.504E+00
RMM:   5    -0.174995593366E+03    0.22643E-02   -0.19015E-01 10947   0.111E+00    0.596E+00
RMM:   6    -0.174899974542E+03    0.95619E-01   -0.95979E-02 11076   0.791E-01    0.310E+00
RMM:   7    -0.174933733466E+03   -0.33759E-01   -0.11251E-01 11074   0.842E-01    0.398E+00
RMM:   8    -0.174850763040E+03    0.82970E-01   -0.39675E-02 11480   0.499E-01    0.872E-01
RMM:   9    -0.174851542681E+03   -0.77964E-03   -0.10849E-02 12564   0.273E-01    0.105E+00
RMM:  10    -0.174847115254E+03    0.44274E-02   -0.39432E-03 12983   0.151E-01    0.508E-01
RMM:  11    -0.174847678779E+03   -0.56353E-03   -0.23165E-03 12298   0.116E-01    0.555E-01
RMM:  12    -0.174846348899E+03    0.13299E-02   -0.13005E-03 11437   0.897E-02    0.322E-01
RMM:  13    -0.174846078445E+03    0.27045E-03   -0.40898E-04 12253   0.493E-02    0.224E-01
RMM:  14    -0.174845901809E+03    0.17664E-03   -0.13219E-04 10682   0.289E-02    0.124E-01
RMM:  15    -0.174845847476E+03    0.54333E-04   -0.60392E-05 10327   0.196E-02    0.553E-02
RMM:  16    -0.174845848435E+03   -0.95926E-06   -0.20036E-05  7719   0.127E-02
   9 F= -.17484585E+03 E0= -.17484520E+03  d E =-.473420E+00  mag=     0.0000
       N       E                     dE             d eps       ncg     rms          rms(c)
DAV:   1    -0.174954578851E+03   -0.10873E+00   -0.15429E+01 10896   0.117E+01    0.266E+00
RMM:   2    -0.175022577984E+03   -0.67999E-01   -0.58561E-01 10880   0.236E+00    0.421E+00
RMM:   3    -0.174954573106E+03    0.68005E-01   -0.10437E-01 11152   0.843E-01    0.304E+00
RMM:   4    -0.174926813780E+03    0.27759E-01   -0.26118E-02 10954   0.451E-01    0.154E+00
RMM:   5    -0.174927402337E+03   -0.58856E-03   -0.21050E-02 11022   0.369E-01    0.197E+00
RMM:   6    -0.174916046633E+03    0.11356E-01   -0.10982E-02 11123   0.256E-01    0.976E-01
RMM:   7    -0.174914589349E+03    0.14573E-02   -0.74531E-03 11090   0.217E-01    0.880E-01
RMM:   8    -0.174910703939E+03    0.38854E-02   -0.29418E-03 11803   0.130E-01    0.259E-01
RMM:   9    -0.174910637584E+03    0.66355E-04   -0.56478E-04 12177   0.674E-02    0.229E-01
RMM:  10    -0.174910463751E+03    0.17383E-03   -0.28685E-04 12757   0.392E-02    0.123E-01
RMM:  11    -0.174910525461E+03   -0.61710E-04   -0.18818E-04 11560   0.338E-02    0.156E-01
RMM:  12    -0.174910436182E+03    0.89278E-04   -0.81528E-05  9789   0.228E-02    0.795E-02
RMM:  13    -0.174910416140E+03    0.20043E-04   -0.27423E-05  7789   0.142E-02    0.609E-02
RMM:  14    -0.174910402688E+03    0.13451E-04   -0.94355E-06  6178   0.108E-02    0.335E-02
RMM:  15    -0.174910398042E+03    0.46467E-05   -0.53604E-06  6101   0.749E-03
  10 F= -.17491040E+03 E0= -.17490910E+03  d E =-.537970E+00  mag=     0.0000
       N       E                     dE             d eps       ncg     rms          rms(c)
DAV:   1    -0.175182732598E+03   -0.27233E+00   -0.77656E+01 10880   0.247E+01    0.436E+00
RMM:   2    -0.175647672946E+03   -0.46494E+00   -0.22581E+00 10887   0.487E+00    0.800E+00
RMM:   3    -0.175290400162E+03    0.35727E+00   -0.24803E-01 11054   0.151E+00    0.315E+00
RMM:   4    -0.175308672759E+03   -0.18273E-01   -0.84343E-02 11312   0.719E-01    0.255E+00
RMM:   5    -0.175331953439E+03   -0.23281E-01   -0.90405E-02 11016   0.747E-01    0.404E+00
RMM:   6    -0.175277657623E+03    0.54296E-01   -0.28843E-02 11192   0.407E-01    0.179E+00
RMM:   7    -0.175269271029E+03    0.83866E-02   -0.12495E-02 11369   0.293E-01    0.121E+00
RMM:   8    -0.175261255278E+03    0.80158E-02   -0.51166E-03 11616   0.178E-01    0.412E-01
RMM:   9    -0.175260649258E+03    0.60602E-03   -0.87384E-04 12457   0.838E-02    0.244E-01
RMM:  10    -0.175260527934E+03    0.12132E-03   -0.45708E-04 11764   0.490E-02    0.228E-01
RMM:  11    -0.175260448403E+03    0.79531E-04   -0.21412E-04 11326   0.351E-02    0.134E-01
RMM:  12    -0.175260437818E+03    0.10585E-04   -0.13127E-04  9879   0.288E-02    0.110E-01
RMM:  13    -0.175260366078E+03    0.71740E-04   -0.52722E-05  9239   0.188E-02    0.227E-02
RMM:  14    -0.175260366825E+03   -0.74663E-06   -0.86769E-06  6491   0.967E-03
  11 F= -.17526037E+03 E0= -.17525815E+03  d E =-.349969E+00  mag=     0.0000
       N       E                     dE             d eps       ncg     rms          rms(c)
DAV:   1    -0.175374597152E+03   -0.11423E+00   -0.68012E+01 10880   0.231E+01    0.417E+00
RMM:   2    -0.175755144471E+03   -0.38055E+00   -0.19706E+00 10884   0.459E+00    0.728E+00
RMM:   3    -0.175465658549E+03    0.28949E+00   -0.21528E-01 11139   0.139E+00    0.283E+00
RMM:   4    -0.175470701099E+03   -0.50425E-02   -0.65438E-02 11460   0.622E-01    0.221E+00
RMM:   5    -0.175497892518E+03   -0.27191E-01   -0.67349E-02 11182   0.645E-01    0.357E+00
RMM:   6    -0.175451556096E+03    0.46336E-01   -0.26524E-02 11122   0.394E-01    0.120E+00
RMM:   7    -0.175449504783E+03    0.20513E-02   -0.11144E-02 11233   0.285E-01    0.112E+00
RMM:   8    -0.175442449280E+03    0.70555E-02   -0.37276E-03 11526   0.156E-01    0.301E-01
RMM:   9    -0.175442240687E+03    0.20859E-03   -0.71445E-04 12240   0.737E-02    0.251E-01
RMM:  10    -0.175442023092E+03    0.21759E-03   -0.34718E-04 11372   0.439E-02    0.177E-01
RMM:  11    -0.175441971670E+03    0.51422E-04   -0.15647E-04 11021   0.296E-02    0.105E-01
RMM:  12    -0.175441963274E+03    0.83952E-05   -0.68374E-05  9741   0.217E-02
  12 F= -.17544196E+03 E0= -.17544015E+03  d E =-.531565E+00  mag=    -0.0000
       N       E                     dE             d eps       ncg     rms          rms(c)
DAV:   1    -0.175073359522E+03    0.36861E+00   -0.27191E+02 10880   0.462E+01    0.789E+00
RMM:   2    -0.176305817727E+03   -0.12325E+01   -0.79247E+00 10882   0.903E+00    0.134E+01
RMM:   3    -0.175412730075E+03    0.89309E+00   -0.67598E-01 11115   0.264E+00    0.521E+00
RMM:   4    -0.175434315556E+03   -0.21585E-01   -0.20564E-01 11555   0.110E+00    0.575E+00
RMM:   5    -0.175367938954E+03    0.66377E-01   -0.55957E-02 11616   0.608E-01    0.280E+00
RMM:   6    -0.175451735883E+03   -0.83797E-01   -0.12961E-01 11147   0.868E-01    0.442E+00
RMM:   7    -0.175356489815E+03    0.95246E-01   -0.53580E-02 11193   0.576E-01    0.147E+00
RMM:   8    -0.175344756611E+03    0.11733E-01   -0.15620E-02 11940   0.297E-01    0.673E-01
RMM:   9    -0.175344219125E+03    0.53749E-03   -0.30383E-03 12286   0.150E-01    0.553E-01
RMM:  10    -0.175342616808E+03    0.16023E-02   -0.15862E-03 11378   0.934E-02    0.235E-01
RMM:  11    -0.175342724283E+03   -0.10748E-03   -0.71026E-04 11488   0.660E-02    0.275E-01
RMM:  12    -0.175342444444E+03    0.27984E-03   -0.35550E-04 11302   0.451E-02    0.110E-01
RMM:  13    -0.175342429928E+03    0.14517E-04   -0.84068E-05 10256   0.237E-02    0.801E-02
RMM:  14    -0.175342392714E+03    0.37214E-04   -0.30430E-05  8035   0.150E-02    0.367E-02
RMM:  15    -0.175342390049E+03    0.26644E-05   -0.17412E-05  7095   0.121E-02
  13 F= -.17534239E+03 E0= -.17534376E+03  d E =-.431992E+00  mag=    -0.0000
       N       E                     dE             d eps       ncg     rms          rms(c)
DAV:   1    -0.175273307142E+03    0.69086E-01   -0.14746E+02 10880   0.343E+01    0.604E+00
RMM:   2    -0.176124218020E+03   -0.85091E+00   -0.43924E+00 10882   0.690E+00    0.106E+01
RMM:   3    -0.175579958973E+03    0.54426E+00   -0.57712E-01 11219   0.220E+00    0.554E+00
RMM:   4    -0.175558106212E+03    0.21853E-01   -0.14101E-01 11487   0.911E-01    0.339E+00
RMM:   5    -0.175679189273E+03   -0.12108E+00   -0.21475E-01 10948   0.114E+00    0.645E+00
RMM:   6    -0.175493451114E+03    0.18574E+00   -0.77041E-02 11125   0.678E-01    0.196E+00
RMM:   7    -0.175490925511E+03    0.25256E-02   -0.22152E-02 11350   0.393E-01    0.196E+00
RMM:   8    -0.175473916043E+03    0.17009E-01   -0.96761E-03 11347   0.252E-01    0.667E-01
RMM:   9    -0.175472955265E+03    0.96078E-03   -0.40347E-03 11342   0.166E-01    0.616E-01
RMM:  10    -0.175470981472E+03    0.19738E-02   -0.11982E-03 11280   0.862E-02    0.168E-01
RMM:  11    -0.175471051414E+03   -0.69942E-04   -0.54206E-04 11955   0.525E-02    0.212E-01
RMM:  12    -0.175470857169E+03    0.19424E-03   -0.12738E-04 10367   0.279E-02    0.995E-02
RMM:  13    -0.175470824878E+03    0.32291E-04   -0.57556E-05 10019   0.179E-02    0.654E-02
RMM:  14    -0.175470823717E+03    0.11614E-05   -0.17091E-05  7361   0.128E-02
  14 F= -.17547082E+03 E0= -.17546971E+03  d E =-.560426E+00  mag=     0.0000
       N       E                     dE             d eps       ncg     rms          rms(c)
DAV:   1    -0.175677161702E+03   -0.20634E+00   -0.10271E+02 10880   0.286E+01    0.507E+00
RMM:   2    -0.176166749718E+03   -0.48959E+00   -0.33152E+00 10885   0.575E+00    0.980E+00
RMM:   3    -0.175773475708E+03    0.39327E+00   -0.30598E-01 11506   0.171E+00    0.309E+00
RMM:   4    -0.175864954707E+03   -0.91479E-01   -0.11637E-01 10951   0.854E-01    0.506E+00
RMM:   5    -0.175790804655E+03    0.74150E-01   -0.76670E-02 11046   0.688E-01    0.344E+00
RMM:   6    -0.175749334896E+03    0.41470E-01   -0.41459E-02 11103   0.503E-01    0.148E+00
RMM:   7    -0.175743198195E+03    0.61367E-02   -0.13742E-02 11429   0.307E-01    0.879E-01
RMM:   8    -0.175739796534E+03    0.34017E-02   -0.46611E-03 13051   0.156E-01    0.404E-01
RMM:   9    -0.175739627911E+03    0.16862E-03   -0.94464E-04 12907   0.833E-02    0.359E-01
RMM:  10    -0.175739499167E+03    0.12874E-03   -0.88768E-04 11983   0.699E-02    0.333E-01
RMM:  11    -0.175739434785E+03    0.64381E-04   -0.45768E-04 11660   0.546E-02    0.247E-01
RMM:  12    -0.175739154391E+03    0.28039E-03   -0.18278E-04 10393   0.333E-02    0.106E-01
RMM:  13    -0.175739108858E+03    0.45533E-04   -0.73066E-05 10259   0.207E-02    0.673E-02
RMM:  14    -0.175739087389E+03    0.21470E-04   -0.17067E-05  7571   0.112E-02    0.272E-02
RMM:  15    -0.175739089572E+03   -0.21831E-05   -0.74671E-06  6307   0.884E-03
  15 F= -.17573909E+03 E0= -.17573892E+03  d E =-.268266E+00  mag=     0.0000
       N       E                     dE             d eps       ncg     rms          rms(c)
DAV:   1    -0.175759477679E+03   -0.20390E-01   -0.11348E+01 11184   0.952E+00    0.160E+00
RMM:   2    -0.175815693424E+03   -0.56216E-01   -0.35858E-01 10882   0.189E+00    0.331E+00
RMM:   3    -0.175770348110E+03    0.45345E-01   -0.34290E-02 11577   0.556E-01    0.107E+00
RMM:   4    -0.175777279210E+03   -0.69311E-02   -0.11595E-02 11040   0.268E-01    0.158E+00
RMM:   5    -0.175774390058E+03    0.28892E-02   -0.89252E-03 11040   0.238E-01    0.132E+00
RMM:   6    -0.175767786057E+03    0.66040E-02   -0.53260E-03 11080   0.181E-01    0.515E-01
RMM:   7    -0.175767098880E+03    0.68718E-03   -0.18933E-03 11310   0.115E-01    0.384E-01
RMM:   8    -0.175766381683E+03    0.71720E-03   -0.65426E-04 12011   0.603E-02    0.118E-01
RMM:   9    -0.175766364045E+03    0.17638E-04   -0.12596E-04 10764   0.290E-02    0.106E-01
RMM:  10    -0.175766325244E+03    0.38800E-04   -0.10337E-04 10770   0.237E-02    0.735E-02
RMM:  11    -0.175766346341E+03   -0.21097E-04   -0.41429E-05  8240   0.181E-02    0.779E-02
RMM:  12    -0.175766314501E+03    0.31840E-04   -0.21400E-05  7125   0.147E-02    0.291E-02
RMM:  13    -0.175766310119E+03    0.43823E-05   -0.61721E-06  6179   0.914E-03
  16 F= -.17576631E+03 E0= -.17576646E+03  d E =-.295486E+00  mag=     0.0000
       N       E                     dE             d eps       ncg     rms          rms(c)
DAV:   1    -0.175876839983E+03   -0.11053E+00   -0.90501E+01 10880   0.281E+01    0.477E+00
RMM:   2    -0.176229867175E+03   -0.35303E+00   -0.25264E+00 10888   0.517E+00    0.703E+00
RMM:   3    -0.176065841778E+03    0.16403E+00   -0.20866E-01 11557   0.153E+00    0.314E+00
RMM:   4    -0.176134720719E+03   -0.68879E-01   -0.81892E-02 10947   0.738E-01    0.463E+00
RMM:   5    -0.176125693758E+03    0.90270E-02   -0.62047E-02 10952   0.643E-01    0.449E+00
RMM:   6    -0.176061090507E+03    0.64603E-01   -0.40582E-02 11087   0.498E-01    0.166E+00
RMM:   7    -0.176054813511E+03    0.62770E-02   -0.22732E-02 11133   0.394E-01    0.141E+00
RMM:   8    -0.176041075377E+03    0.13738E-01   -0.74566E-03 11204   0.221E-01    0.378E-01
RMM:   9    -0.176040947761E+03    0.12762E-03   -0.14194E-03 12002   0.913E-02    0.305E-01
RMM:  10    -0.176040575777E+03    0.37198E-03   -0.44596E-04 11284   0.511E-02    0.166E-01
RMM:  11    -0.176040660404E+03   -0.84627E-04   -0.26155E-04 11280   0.408E-02    0.174E-01
RMM:  12    -0.176040524859E+03    0.13555E-03   -0.12283E-04  9741   0.272E-02    0.740E-02
RMM:  13    -0.176040490482E+03    0.34377E-04   -0.51481E-05  9017   0.176E-02    0.332E-02
RMM:  14    -0.176040487985E+03    0.24969E-05   -0.10741E-05  6596   0.109E-02
  17 F= -.17604049E+03 E0= -.17604131E+03  d E =-.274178E+00  mag=     0.0000
       N       E                     dE             d eps       ncg     rms          rms(c)
DAV:   1    -0.176051643494E+03   -0.11153E-01   -0.78434E+00 11136   0.826E+00    0.139E+00
RMM:   2    -0.176084517039E+03   -0.32874E-01   -0.21815E-01 10880   0.153E+00    0.225E+00
RMM:   3    -0.176067035939E+03    0.17481E-01   -0.18119E-02 11619   0.446E-01    0.914E-01
RMM:   4    -0.176073991225E+03   -0.69553E-02   -0.65909E-03 10969   0.208E-01    0.144E+00
RMM:   5    -0.176074304283E+03   -0.31306E-03   -0.50814E-03 10960   0.183E-01    0.146E+00
RMM:   6    -0.176067239273E+03    0.70650E-02   -0.39594E-03 11044   0.156E-01    0.561E-01
RMM:   7    -0.176066099275E+03    0.11400E-02   -0.22167E-03 11078   0.123E-01    0.375E-01
RMM:   8    -0.176065113178E+03    0.98610E-03   -0.67898E-04 10880   0.663E-02    0.116E-01
RMM:   9    -0.176065089512E+03    0.23666E-04   -0.10263E-04 10755   0.242E-02    0.643E-02
RMM:  10    -0.176065071640E+03    0.17872E-04   -0.35871E-05  7910   0.158E-02    0.524E-02
RMM:  11    -0.176065068784E+03    0.28566E-05   -0.25561E-05  7393   0.148E-02
  18 F= -.17606507E+03 E0= -.17606598E+03  d E =-.298759E+00  mag=     0.0000
       N       E                     dE             d eps       ncg     rms          rms(c)
DAV:   1    -0.176198254339E+03   -0.13318E+00   -0.75867E+01 10880   0.240E+01    0.431E+00
RMM:   2    -0.176511799895E+03   -0.31355E+00   -0.20642E+00 10880   0.461E+00    0.619E+00
RMM:   3    -0.176370098924E+03    0.14170E+00   -0.21187E-01 11577   0.143E+00    0.237E+00
RMM:   4    -0.176408235007E+03   -0.38136E-01   -0.82799E-02 11319   0.707E-01    0.404E+00
RMM:   5    -0.176387807374E+03    0.20428E-01   -0.30636E-02 11249   0.445E-01    0.292E+00
RMM:   6    -0.176354830212E+03    0.32977E-01   -0.34372E-02 11102   0.448E-01    0.156E+00
RMM:   7    -0.176350319349E+03    0.45109E-02   -0.11910E-02 11356   0.284E-01    0.120E+00
RMM:   8    -0.176341918716E+03    0.84006E-02   -0.46578E-03 11473   0.175E-01    0.342E-01
RMM:   9    -0.176341824010E+03    0.94705E-04   -0.11979E-03 11432   0.882E-02    0.296E-01
RMM:  10    -0.176341314010E+03    0.51000E-03   -0.54072E-04 11118   0.567E-02    0.164E-01
RMM:  11    -0.176341289423E+03    0.24587E-04   -0.17496E-04 11285   0.315E-02    0.140E-01
RMM:  12    -0.176341211797E+03    0.77626E-04   -0.13183E-04  9903   0.277E-02    0.650E-02
RMM:  13    -0.176341187163E+03    0.24634E-04   -0.40376E-05  8364   0.149E-02    0.266E-02
RMM:  14    -0.176341186939E+03    0.22352E-06   -0.86874E-06  6327   0.101E-02
  19 F= -.17634119E+03 E0= -.17634206E+03  d E =-.276118E+00  mag=     0.0000
       N       E                     dE             d eps       ncg     rms          rms(c)
DAV:   1    -0.176336761736E+03    0.44254E-02   -0.12083E+01 10960   0.956E+00    0.164E+00
RMM:   2    -0.176393320281E+03   -0.56559E-01   -0.32485E-01 10880   0.184E+00    0.276E+00
RMM:   3    -0.176361584991E+03    0.31735E-01   -0.32690E-02 11581   0.554E-01    0.897E-01
RMM:   4    -0.176370334216E+03   -0.87492E-02   -0.11843E-02 11417   0.265E-01    0.173E+00
RMM:   5    -0.176367143201E+03    0.31910E-02   -0.44931E-03 11249   0.170E-01    0.130E+00
RMM:   6    -0.176360543557E+03    0.65996E-02   -0.56098E-03 11160   0.180E-01    0.652E-01
RMM:   7    -0.176359522860E+03    0.10207E-02   -0.20223E-03 11274   0.117E-01    0.472E-01
RMM:   8    -0.176358244727E+03    0.12781E-02   -0.79059E-04 11036   0.712E-02    0.144E-01
RMM:   9    -0.176358196021E+03    0.48706E-04   -0.17636E-04 10261   0.341E-02    0.102E-01
RMM:  10    -0.176358131323E+03    0.64699E-04   -0.73481E-05  9659   0.208E-02    0.619E-02
RMM:  11    -0.176358129567E+03    0.17553E-05   -0.28596E-05  7725   0.142E-02
  20 F= -.17635813E+03 E0= -.17635899E+03  d E =-.293061E+00  mag=     0.0000
       N       E                     dE             d eps       ncg     rms          rms(c)
DAV:   1    -0.176355601588E+03    0.25297E-02   -0.27548E+00 11088   0.456E+00    0.759E-01
RMM:   2    -0.176368755636E+03   -0.13154E-01   -0.72579E-02 10882   0.862E-01    0.138E+00
RMM:   3    -0.176360821035E+03    0.79346E-02   -0.66958E-03 11537   0.254E-01    0.461E-01
RMM:   4    -0.176363199908E+03   -0.23789E-02   -0.23912E-03 11262   0.119E-01    0.855E-01
RMM:   5    -0.176362853848E+03    0.34606E-03   -0.10304E-03 10923   0.813E-02    0.713E-01
RMM:   6    -0.176360861049E+03    0.19928E-02   -0.12776E-03 10922   0.863E-02    0.331E-01
RMM:   7    -0.176360468483E+03    0.39257E-03   -0.52703E-04 10674   0.604E-02    0.228E-01
RMM:   8    -0.176360182418E+03    0.28606E-03   -0.20920E-04 10286   0.362E-02    0.735E-02
RMM:   9    -0.176360162571E+03    0.19847E-04   -0.36824E-05  8070   0.168E-02    0.372E-02
RMM:  10    -0.176360153359E+03    0.92120E-05   -0.13867E-05  6347   0.114E-02
  21 F= -.17636015E+03 E0= -.17636103E+03  d E =-.295085E+00  mag=     0.0000
       N       E                     dE             d eps       ncg     rms          rms(c)
DAV:   1    -0.176396968952E+03   -0.36806E-01   -0.47528E+01 10880   0.189E+01    0.303E+00
RMM:   2    -0.176579070534E+03   -0.18210E+00   -0.13717E+00 10885   0.378E+00    0.465E+00
RMM:   3    -0.176490152844E+03    0.88918E-01   -0.13814E-01 11554   0.111E+00    0.197E+00
RMM:   4    -0.176483166577E+03    0.69863E-02   -0.40961E-02 11345   0.500E-01    0.217E+00
RMM:   5    -0.176481857179E+03    0.13094E-02   -0.18883E-02 11085   0.360E-01    0.174E+00
RMM:   6    -0.176471541200E+03    0.10316E-01   -0.19238E-02 11074   0.344E-01    0.104E+00
RMM:   7    -0.176472377333E+03   -0.83613E-03   -0.79884E-03 11151   0.234E-01    0.112E+00
RMM:   8    -0.176465425952E+03    0.69514E-02   -0.33995E-03 11262   0.153E-01    0.182E-01
RMM:   9    -0.176465428047E+03   -0.20952E-05   -0.65223E-04 12496   0.700E-02    0.213E-01
RMM:  10    -0.176465282414E+03    0.14563E-03   -0.24546E-04 11080   0.379E-02    0.131E-01
RMM:  11    -0.176465249923E+03    0.32491E-04   -0.15921E-04 11259   0.294E-02    0.900E-02
RMM:  12    -0.176465247542E+03    0.23810E-05   -0.47165E-05  8849   0.191E-02
  22 F= -.17646525E+03 E0= -.17646642E+03  d E =-.105094E+00  mag=     0.0000
       N       E                     dE             d eps       ncg     rms          rms(c)
DAV:   1    -0.176465482725E+03   -0.23280E-03   -0.22751E+00 11008   0.414E+00    0.661E-01
RMM:   2    -0.176475036773E+03   -0.95540E-02   -0.66331E-02 10892   0.826E-01    0.113E+00
RMM:   3    -0.176469782352E+03    0.52544E-02   -0.66001E-03 11811   0.238E-01    0.413E-01
RMM:   4    -0.176469910568E+03   -0.12822E-03   -0.20006E-03 11221   0.113E-01    0.494E-01
RMM:   5    -0.176470165643E+03   -0.25507E-03   -0.12665E-03 10964   0.931E-02    0.484E-01
RMM:   6    -0.176469208973E+03    0.95667E-03   -0.10777E-03 11072   0.832E-02    0.239E-01
RMM:   7    -0.176469057747E+03    0.15123E-03   -0.39446E-04 10828   0.524E-02    0.191E-01
RMM:   8    -0.176468858975E+03    0.19877E-03   -0.13771E-04 10231   0.296E-02    0.507E-02
RMM:   9    -0.176468857247E+03    0.17280E-05   -0.23548E-05  7106   0.149E-02
  23 F= -.17646886E+03 E0= -.17646996E+03  d E =-.108704E+00  mag=    -0.0000
       N       E                     dE             d eps       ncg     rms          rms(c)
DAV:   1    -0.176529890573E+03   -0.61032E-01   -0.23761E+01 10880   0.139E+01    0.232E+00
RMM:   2    -0.176585608921E+03   -0.55718E-01   -0.75780E-01 10882   0.270E+00    0.313E+00
RMM:   3    -0.176553748432E+03    0.31860E-01   -0.61229E-02 11500   0.819E-01    0.163E+00
RMM:   4    -0.176561172430E+03   -0.74240E-02   -0.24873E-02 10989   0.413E-01    0.202E+00
RMM:   5    -0.176565390118E+03   -0.42177E-02   -0.20087E-02 11090   0.387E-01    0.238E+00
RMM:   6    -0.176550121846E+03    0.15268E-01   -0.10909E-02 11096   0.256E-01    0.113E+00
RMM:   7    -0.176546355435E+03    0.37664E-02   -0.68844E-03 11129   0.215E-01    0.926E-01
RMM:   8    -0.176541622225E+03    0.47332E-02   -0.31072E-03 11195   0.142E-01    0.251E-01
RMM:   9    -0.176541287435E+03    0.33479E-03   -0.58942E-04 11516   0.633E-02    0.173E-01
RMM:  10    -0.176541185581E+03    0.10185E-03   -0.23322E-04 11586   0.328E-02    0.997E-02
RMM:  11    -0.176541212890E+03   -0.27309E-04   -0.11568E-04  9947   0.274E-02    0.933E-02
RMM:  12    -0.176541191237E+03    0.21654E-04   -0.60624E-05  9060   0.207E-02    0.535E-02
RMM:  13    -0.176541180468E+03    0.10769E-04   -0.16244E-05  6597   0.118E-02    0.211E-02
RMM:  14    -0.176541180824E+03   -0.35642E-06   -0.62896E-06  6162   0.929E-03
  24 F= -.17654118E+03 E0= -.17654321E+03  d E =-.723236E-01  mag=    -0.0000
       N       E                     dE             d eps       ncg     rms          rms(c)
DAV:   1    -0.176545361022E+03   -0.41806E-02   -0.53392E+00 10928   0.661E+00    0.110E+00
RMM:   2    -0.176557953209E+03   -0.12592E-01   -0.16973E-01 10888   0.128E+00    0.150E+00
RMM:   3    -0.176550802011E+03    0.71512E-02   -0.13703E-02 11543   0.387E-01    0.783E-01
RMM:   4    -0.176552460665E+03   -0.16587E-02   -0.57030E-03 10977   0.198E-01    0.960E-01
RMM:   5    -0.176553894491E+03   -0.14338E-02   -0.46828E-03 11094   0.188E-01    0.116E+00
RMM:   6    -0.176550101783E+03    0.37927E-02   -0.25054E-03 11087   0.123E-01    0.542E-01
RMM:   7    -0.176549183431E+03    0.91835E-03   -0.15986E-03 11118   0.104E-01    0.440E-01
RMM:   8    -0.176548114689E+03    0.10687E-02   -0.70909E-04 11119   0.674E-02    0.115E-01
RMM:   9    -0.176548044071E+03    0.70618E-04   -0.13098E-04 10217   0.302E-02    0.838E-02
RMM:  10    -0.176548020316E+03    0.23755E-04   -0.46981E-05  8376   0.161E-02    0.433E-02
RMM:  11    -0.176548030050E+03   -0.97347E-05   -0.26868E-05  7526   0.153E-02
  25 F= -.17654803E+03 E0= -.17655047E+03  d E =-.791728E-01  mag=    -0.0000
       N       E                     dE             d eps       ncg     rms          rms(c)
DAV:   1    -0.176629410517E+03   -0.81390E-01   -0.23293E+01 10880   0.135E+01    0.212E+00
RMM:   2    -0.176715921038E+03   -0.86511E-01   -0.67105E-01 10880   0.262E+00    0.352E+00
RMM:   3    -0.176671254090E+03    0.44667E-01   -0.54482E-02 11428   0.763E-01    0.151E+00
RMM:   4    -0.176675440989E+03   -0.41869E-02   -0.16775E-02 11324   0.318E-01    0.178E+00
RMM:   5    -0.176683205404E+03   -0.77644E-02   -0.17467E-02 10923   0.325E-01    0.189E+00
RMM:   6    -0.176668486986E+03    0.14718E-01   -0.13596E-02 10968   0.295E-01    0.695E-01
RMM:   7    -0.176667360588E+03    0.11264E-02   -0.33639E-03 11241   0.156E-01    0.653E-01
RMM:   8    -0.176664854271E+03    0.25063E-02   -0.11774E-03 11048   0.880E-02    0.201E-01
RMM:   9    -0.176664744136E+03    0.11014E-03   -0.25753E-04 10864   0.390E-02    0.126E-01
RMM:  10    -0.176664674017E+03    0.70119E-04   -0.10238E-04 10024   0.245E-02    0.923E-02
RMM:  11    -0.176664688508E+03   -0.14491E-04   -0.71564E-05  9448   0.220E-02    0.102E-01
RMM:  12    -0.176664649679E+03    0.38828E-04   -0.54641E-05  8782   0.191E-02    0.285E-02
RMM:  13    -0.176664645388E+03    0.42914E-05   -0.82306E-06  6280   0.963E-03
  26 F= -.17666465E+03 E0= -.17666764E+03  d E =-.116615E+00  mag=    -0.0000
       N       E                     dE             d eps       ncg     rms          rms(c)
DAV:   1    -0.176668320062E+03   -0.36704E-02   -0.29037E+00 11024   0.478E+00    0.751E-01
RMM:   2    -0.176678961493E+03   -0.10641E-01   -0.83098E-02 10882   0.921E-01    0.124E+00
RMM:   3    -0.176673467443E+03    0.54941E-02   -0.67229E-03 11462   0.267E-01    0.548E-01
RMM:   4    -0.176673839529E+03   -0.37209E-03   -0.19866E-03 11439   0.108E-01    0.623E-01
RMM:   5    -0.176674809215E+03   -0.96969E-03   -0.19432E-03 10959   0.110E-01    0.678E-01
RMM:   6    -0.176673053083E+03    0.17561E-02   -0.16119E-03 10987   0.102E-01    0.243E-01
RMM:   7    -0.176672978321E+03    0.74761E-04   -0.38648E-04 10640   0.529E-02    0.223E-01
RMM:   8    -0.176672680429E+03    0.29789E-03   -0.13808E-04  9807   0.299E-02    0.657E-02
RMM:   9    -0.176672666338E+03    0.14091E-04   -0.24791E-05  7483   0.143E-02    0.452E-02
RMM:  10    -0.176672657016E+03    0.93224E-05   -0.14099E-05  6358   0.124E-02
  27 F= -.17667266E+03 E0= -.17667575E+03  d E =-.124627E+00  mag=     0.0000
       N       E                     dE             d eps       ncg     rms          rms(c)
DAV:   1    -0.176750705151E+03   -0.78039E-01   -0.16839E+01 10880   0.115E+01    0.207E+00
RMM:   2    -0.176840463199E+03   -0.89758E-01   -0.52541E-01 10880   0.226E+00    0.399E+00
RMM:   3    -0.176768653517E+03    0.71810E-01   -0.55582E-02 11276   0.724E-01    0.125E+00
RMM:   4    -0.176779754019E+03   -0.11101E-01   -0.19077E-02 10997   0.355E-01    0.205E+00
RMM:   5    -0.176763997212E+03    0.15757E-01   -0.95102E-03 10893   0.259E-01    0.977E-01
RMM:   6    -0.176763677736E+03    0.31948E-03   -0.77214E-03 11153   0.212E-01    0.760E-01
RMM:   7    -0.176762253866E+03    0.14239E-02   -0.38724E-03 11162   0.151E-01    0.626E-01
RMM:   8    -0.176760242442E+03    0.20114E-02   -0.14851E-03 11182   0.987E-02    0.232E-01
RMM:   9    -0.176760062135E+03    0.18031E-03   -0.34005E-04 10762   0.499E-02    0.185E-01
RMM:  10    -0.176759929296E+03    0.13284E-03   -0.11476E-04 10492   0.256E-02    0.890E-02
RMM:  11    -0.176759941498E+03   -0.12202E-04   -0.65308E-05  9177   0.208E-02    0.980E-02
RMM:  12    -0.176759899592E+03    0.41906E-04   -0.46569E-05  8732   0.183E-02    0.355E-02
RMM:  13    -0.176759892752E+03    0.68395E-05   -0.10541E-05  6276   0.102E-02
  28 F= -.17675989E+03 E0= -.17676285E+03  d E =-.872357E-01  mag=     0.0000
       N       E                     dE             d eps       ncg     rms          rms(c)
DAV:   1    -0.176782864939E+03   -0.22965E-01   -0.57951E+00 10896   0.676E+00    0.123E+00
RMM:   2    -0.176814139793E+03   -0.31275E-01   -0.18181E-01 10880   0.133E+00    0.235E+00
RMM:   3    -0.176788905577E+03    0.25234E-01   -0.19859E-02 11246   0.433E-01    0.737E-01
RMM:   4    -0.176792623045E+03   -0.37175E-02   -0.62760E-03 11034   0.204E-01    0.119E+00
RMM:   5    -0.176787411250E+03    0.52118E-02   -0.31289E-03 10912   0.148E-01    0.590E-01
RMM:   6    -0.176786832012E+03    0.57924E-03   -0.26544E-03 11186   0.122E-01    0.377E-01
RMM:   7    -0.176786700342E+03    0.13167E-03   -0.11734E-03 11131   0.848E-02    0.366E-01
RMM:   8    -0.176786007699E+03    0.69264E-03   -0.47783E-04 11024   0.567E-02    0.121E-01
RMM:   9    -0.176785962824E+03    0.44875E-04   -0.10523E-04  9803   0.277E-02    0.103E-01
RMM:  10    -0.176785918604E+03    0.44220E-04   -0.30775E-05  7750   0.147E-02    0.483E-02
RMM:  11    -0.176785928934E+03   -0.10330E-04   -0.22266E-05  7170   0.142E-02    0.585E-02
RMM:  12    -0.176785913256E+03    0.15678E-04   -0.14979E-05  6529   0.134E-02    0.284E-02
RMM:  13    -0.176785908094E+03    0.51615E-05   -0.53135E-06  6094   0.866E-03
  29 F= -.17678591E+03 E0= -.17678875E+03  d E =-.113251E+00  mag=     0.0000
       N       E                     dE             d eps       ncg     rms          rms(c)
DAV:   1    -0.176872353162E+03   -0.86440E-01   -0.11069E+01 10880   0.928E+00    0.184E+00
RMM:   2    -0.176913664149E+03   -0.41311E-01   -0.36683E-01 10880   0.184E+00    0.308E+00
RMM:   3    -0.176874105930E+03    0.39558E-01   -0.39552E-02 11252   0.603E-01    0.121E+00
RMM:   4    -0.176879420097E+03   -0.53142E-02   -0.14921E-02 10941   0.321E-01    0.159E+00
RMM:   5    -0.176874262802E+03    0.51573E-02   -0.84418E-03 11005   0.247E-01    0.128E+00
RMM:   6    -0.176870002222E+03    0.42606E-02   -0.70528E-03 11106   0.202E-01    0.766E-01
RMM:   7    -0.176868638247E+03    0.13640E-02   -0.30826E-03 11200   0.140E-01    0.528E-01
RMM:   8    -0.176867162757E+03    0.14755E-02   -0.16872E-03 11181   0.102E-01    0.213E-01
RMM:   9    -0.176867003422E+03    0.15934E-03   -0.42162E-04 10690   0.563E-02    0.179E-01
RMM:  10    -0.176866854010E+03    0.14941E-03   -0.12892E-04 10603   0.273E-02    0.650E-02
RMM:  11    -0.176866873155E+03   -0.19145E-04   -0.68614E-05  9829   0.203E-02    0.847E-02
RMM:  12    -0.176866840593E+03    0.32561E-04   -0.35000E-05  7835   0.161E-02    0.390E-02
RMM:  13    -0.176866834399E+03    0.61949E-05   -0.89605E-06  6179   0.110E-02
  30 F= -.17686683E+03 E0= -.17686963E+03  d E =-.809263E-01  mag=     0.0000
       N       E                     dE             d eps       ncg     rms          rms(c)
DAV:   1    -0.176867774397E+03   -0.93380E-03   -0.67047E-02 11520   0.722E-01    0.143E-01
RMM:   2    -0.176868007105E+03   -0.23271E-03   -0.22298E-03 10880   0.144E-01    0.231E-01
RMM:   3    -0.176867786806E+03    0.22030E-03   -0.22687E-04 10873   0.459E-02    0.949E-02
RMM:   4    -0.176867843392E+03   -0.56585E-04   -0.94230E-05  9916   0.258E-02    0.133E-01
RMM:   5    -0.176867789227E+03    0.54165E-04   -0.60555E-05  9023   0.212E-02    0.995E-02
RMM:   6    -0.176867757559E+03    0.31668E-04   -0.44614E-05  8580   0.175E-02    0.534E-02
RMM:   7    -0.176867752382E+03    0.51773E-05   -0.15690E-05  6542   0.132E-02
  31 F= -.17686775E+03 E0= -.17687055E+03  d E =-.818443E-01  mag=     0.0000
       N       E                     dE             d eps       ncg     rms          rms(c)
DAV:   1    -0.176921308770E+03   -0.53551E-01   -0.65109E+00 10880   0.704E+00    0.133E+00
RMM:   2    -0.176931654472E+03   -0.10346E-01   -0.22374E-01 10880   0.142E+00    0.177E+00
RMM:   3    -0.176920351101E+03    0.11303E-01   -0.25897E-02 11196   0.488E-01    0.102E+00
RMM:   4    -0.176917472520E+03    0.28786E-02   -0.91608E-03 10963   0.250E-01    0.892E-01
RMM:   5    -0.176916606914E+03    0.86561E-03   -0.36557E-03 10971   0.167E-01    0.877E-01
RMM:   6    -0.176914264760E+03    0.23422E-02   -0.30000E-03 11174   0.129E-01    0.482E-01
RMM:   7    -0.176914008830E+03    0.25593E-03   -0.19337E-03 11188   0.108E-01    0.408E-01
RMM:   8    -0.176913069491E+03    0.93934E-03   -0.88387E-04 11385   0.748E-02    0.886E-02
RMM:   9    -0.176913099116E+03   -0.29626E-04   -0.17585E-04 11137   0.360E-02    0.121E-01
RMM:  10    -0.176913033412E+03    0.65704E-04   -0.72036E-05  9844   0.207E-02    0.440E-02
RMM:  11    -0.176913028233E+03    0.51792E-05   -0.38508E-05  8327   0.153E-02
  32 F= -.17691303E+03 E0= -.17691597E+03  d E =-.452759E-01  mag=     0.0000
       N       E                     dE             d eps       ncg     rms          rms(c)
DAV:   1    -0.176914292112E+03   -0.12587E-02   -0.87200E-02 11312   0.814E-01    0.164E-01
RMM:   2    -0.176914546591E+03   -0.25448E-03   -0.32103E-03 10880   0.171E-01    0.254E-01
RMM:   3    -0.176914257196E+03    0.28939E-03   -0.41259E-04 10899   0.577E-02    0.107E-01
RMM:   4    -0.176914204706E+03    0.52491E-04   -0.13368E-04 10626   0.305E-02    0.864E-02
RMM:   5    -0.176914202670E+03    0.20354E-05   -0.38644E-05  7950   0.178E-02
  33 F= -.17691420E+03 E0= -.17691712E+03  d E =-.464503E-01  mag=     0.0000
       N       E                     dE             d eps       ncg     rms          rms(c)
DAV:   1    -0.176954969539E+03   -0.40765E-01   -0.44108E+00 10880   0.587E+00    0.114E+00
RMM:   2    -0.176965157235E+03   -0.10188E-01   -0.14574E-01 10880   0.117E+00    0.163E+00
RMM:   3    -0.176955070451E+03    0.10087E-01   -0.15135E-02 11302   0.387E-01    0.732E-01
RMM:   4    -0.176958536462E+03   -0.34660E-02   -0.76714E-03 10989   0.225E-01    0.108E+00
RMM:   5    -0.176954921101E+03    0.36154E-02   -0.41018E-03 10886   0.171E-01    0.101E+00
RMM:   6    -0.176952826641E+03    0.20945E-02   -0.21142E-03 11150   0.113E-01    0.604E-01
RMM:   7    -0.176951781294E+03    0.10453E-02   -0.15949E-03 11128   0.996E-02    0.372E-01
RMM:   8    -0.176950992732E+03    0.78856E-03   -0.66183E-04 11130   0.641E-02    0.677E-02
RMM:   9    -0.176950994950E+03   -0.22182E-05   -0.10888E-04 11102   0.266E-02    0.707E-02
RMM:  10    -0.176950980793E+03    0.14157E-04   -0.35952E-05  7997   0.157E-02    0.441E-02
RMM:  11    -0.176950976368E+03    0.44253E-05   -0.22726E-05  7054   0.154E-02
  34 F= -.17695098E+03 E0= -.17695404E+03  d E =-.367737E-01  mag=    -0.0000
       N       E                     dE             d eps       ncg     rms          rms(c)
DAV:   1    -0.176951069270E+03   -0.88477E-04   -0.11387E-02 11808   0.299E-01    0.637E-02
RMM:   2    -0.176951151957E+03   -0.82687E-04   -0.39383E-04 10882   0.611E-02    0.120E-01
RMM:   3    -0.176951072955E+03    0.79002E-04   -0.44127E-05  8070   0.206E-02    0.527E-02
RMM:   4    -0.176951070470E+03    0.24846E-05   -0.14923E-05  6433   0.130E-02
  35 F= -.17695107E+03 E0= -.17695414E+03  d E =-.368678E-01  mag=    -0.0000
       N       E                     dE             d eps       ncg     rms          rms(c)
DAV:   1    -0.176994779175E+03   -0.43706E-01   -0.41945E+00 10880   0.587E+00    0.112E+00
RMM:   2    -0.177006449366E+03   -0.11670E-01   -0.13916E-01 10880   0.116E+00    0.181E+00
RMM:   3    -0.176993381350E+03    0.13068E-01   -0.14651E-02 11257   0.376E-01    0.681E-01
RMM:   4    -0.176995535184E+03   -0.21538E-02   -0.83775E-03 10989   0.230E-01    0.979E-01
RMM:   5    -0.176994528227E+03    0.10070E-02   -0.30298E-03 10942   0.153E-01    0.113E+00
RMM:   6    -0.176990762656E+03    0.37656E-02   -0.21409E-03 11148   0.113E-01    0.441E-01
RMM:   7    -0.176990508192E+03    0.25446E-03   -0.12140E-03 11162   0.934E-02    0.401E-01
RMM:   8    -0.176989676496E+03    0.83170E-03   -0.50113E-04 11064   0.583E-02    0.817E-02
RMM:   9    -0.176989684159E+03   -0.76635E-05   -0.10446E-04 10472   0.245E-02    0.932E-02
RMM:  10    -0.176989657739E+03    0.26420E-04   -0.31259E-05  7847   0.146E-02    0.559E-02
RMM:  11    -0.176989666604E+03   -0.88649E-05   -0.22985E-05  7174   0.149E-02
  36 F= -.17698967E+03 E0= -.17699266E+03  d E =-.385961E-01  mag=     0.0000
       N       E                     dE             d eps       ncg     rms          rms(c)
DAV:   1    -0.176991434189E+03   -0.17765E-02   -0.12610E-01 11264   0.102E+00    0.201E-01
RMM:   2    -0.176991733554E+03   -0.29936E-03   -0.41187E-03 10882   0.201E-01    0.264E-01
RMM:   3    -0.176991510849E+03    0.22270E-03   -0.50855E-04 11159   0.686E-02    0.170E-01
RMM:   4    -0.176991453231E+03    0.57618E-04   -0.22044E-04 10945   0.376E-02    0.145E-01
RMM:   5    -0.176991398333E+03    0.54898E-04   -0.10857E-04  9568   0.275E-02    0.152E-01
RMM:   6    -0.176991332962E+03    0.65370E-04   -0.69761E-05  9675   0.206E-02    0.566E-02
RMM:   7    -0.176991343866E+03   -0.10903E-04   -0.37467E-05  7831   0.168E-02    0.803E-02
RMM:   8    -0.176991312094E+03    0.31772E-04   -0.14914E-05  6389   0.138E-02    0.167E-02
RMM:   9    -0.176991311771E+03    0.32238E-06   -0.40688E-06  6028   0.751E-03
  37 F= -.17699131E+03 E0= -.17699429E+03  d E =-.402413E-01  mag=     0.0000
       N       E                     dE             d eps       ncg     rms          rms(c)
DAV:   1    -0.177017090434E+03   -0.25778E-01   -0.39745E+00 10880   0.566E+00    0.106E+00
RMM:   2    -0.177025212754E+03   -0.81223E-02   -0.11968E-01 10880   0.112E+00    0.166E+00
RMM:   3    -0.177017343817E+03    0.78689E-02   -0.11287E-02 11609   0.331E-01    0.682E-01
RMM:   4    -0.177018671766E+03   -0.13279E-02   -0.68299E-03 11005   0.208E-01    0.102E+00
RMM:   5    -0.177016372684E+03    0.22991E-02   -0.35759E-03 10958   0.157E-01    0.754E-01
RMM:   6    -0.177014514583E+03    0.18581E-02   -0.27861E-03 10897   0.128E-01    0.368E-01
RMM:   7    -0.177014347307E+03    0.16728E-03   -0.10330E-03 11241   0.852E-02    0.358E-01
RMM:   8    -0.177013695489E+03    0.65182E-03   -0.35525E-04 10756   0.501E-02    0.859E-02
RMM:   9    -0.177013690683E+03    0.48061E-05   -0.66405E-05  9818   0.206E-02
  38 F= -.17701369E+03 E0= -.17701645E+03  d E =-.223789E-01  mag=     0.0000
       N       E                     dE             d eps       ncg     rms          rms(c)
DAV:   1    -0.177016346856E+03   -0.26514E-02   -0.22584E-01 11072   0.135E+00    0.262E-01
RMM:   2    -0.177017269156E+03   -0.92230E-03   -0.71074E-03 10880   0.272E-01    0.523E-01
RMM:   3    -0.177016274998E+03    0.99416E-03   -0.70694E-04 11431   0.817E-02    0.157E-01
RMM:   4    -0.177016458395E+03   -0.18340E-03   -0.43611E-04 10989   0.522E-02    0.276E-01
RMM:   5    -0.177016165849E+03    0.29255E-03   -0.19230E-04 10262   0.363E-02    0.147E-01
RMM:   6    -0.177016124046E+03    0.41803E-04   -0.17759E-04 10586   0.320E-02    0.913E-02
RMM:   7    -0.177016110569E+03    0.13477E-04   -0.69931E-05  8898   0.217E-02    0.920E-02
RMM:   8    -0.177016067784E+03    0.42785E-04   -0.19525E-05  6944   0.139E-02    0.243E-02
RMM:   9    -0.177016067940E+03   -0.15516E-06   -0.51605E-06  5882   0.849E-03
  39 F= -.17701607E+03 E0= -.17701889E+03  d E =-.247562E-01  mag=     0.0000
       N       E                     dE             d eps       ncg     rms          rms(c)
DAV:   1    -0.177042420797E+03   -0.26353E-01   -0.30144E+00 10880   0.501E+00    0.846E-01
RMM:   2    -0.177045996547E+03   -0.35757E-02   -0.87811E-02 10880   0.960E-01    0.977E-01
RMM:   3    -0.177045544278E+03    0.45227E-03   -0.79390E-03 11583   0.286E-01    0.782E-01
RMM:   4    -0.177043160907E+03    0.23834E-02   -0.37607E-03 11164   0.158E-01    0.597E-01
RMM:   5    -0.177043704303E+03   -0.54340E-03   -0.27046E-03 11014   0.138E-01    0.686E-01
RMM:   6    -0.177041786795E+03    0.19175E-02   -0.14355E-03 11074   0.953E-02    0.247E-01
RMM:   7    -0.177041838317E+03   -0.51522E-04   -0.73311E-04 11139   0.710E-02    0.286E-01
RMM:   8    -0.177041358984E+03    0.47933E-03   -0.26213E-04 10292   0.433E-02    0.571E-02
RMM:   9    -0.177041351251E+03    0.77329E-05   -0.39702E-05  8408   0.169E-02
  40 F= -.17704135E+03 E0= -.17704413E+03  d E =-.252833E-01  mag=     0.0000
       N       E                     dE             d eps       ncg     rms          rms(c)
DAV:   1    -0.177041680790E+03   -0.32181E-03   -0.81810E-02 11456   0.827E-01    0.143E-01
RMM:   2    -0.177041876684E+03   -0.19589E-03   -0.25312E-03 10880   0.164E-01    0.187E-01
RMM:   3    -0.177041786159E+03    0.90526E-04   -0.26896E-04 11070   0.497E-02    0.129E-01
RMM:   4    -0.177041713001E+03    0.73158E-04   -0.10418E-04 10283   0.259E-02    0.104E-01
RMM:   5    -0.177041713594E+03   -0.59353E-06   -0.50843E-05  8501   0.194E-02
  41 F= -.17704171E+03 E0= -.17704446E+03  d E =-.256457E-01  mag=     0.0000
       N       E                     dE             d eps       ncg     rms          rms(c)
DAV:   1    -0.177064960862E+03   -0.23248E-01   -0.30222E+00 10880   0.488E+00    0.728E-01
RMM:   2    -0.177073446851E+03   -0.84860E-02   -0.84665E-02 10880   0.948E-01    0.118E+00
RMM:   3    -0.177068630789E+03    0.48161E-02   -0.72274E-03 11564   0.269E-01    0.548E-01
RMM:   4    -0.177070467465E+03   -0.18367E-02   -0.28020E-03 11417   0.131E-01    0.795E-01
RMM:   5    -0.177070690412E+03   -0.22295E-03   -0.19990E-03 11130   0.116E-01    0.889E-01
RMM:   6    -0.177068348612E+03    0.23418E-02   -0.15590E-03 10928   0.980E-02    0.392E-01
RMM:   7    -0.177068116350E+03    0.23226E-03   -0.84825E-04 10956   0.774E-02    0.328E-01
RMM:   8    -0.177067422425E+03    0.69392E-03   -0.39305E-04 10434   0.488E-02    0.677E-02
RMM:   9    -0.177067400913E+03    0.21512E-04   -0.56343E-05  9093   0.206E-02    0.493E-02
RMM:  10    -0.177067390453E+03    0.10460E-04   -0.17057E-05  6668   0.119E-02    0.308E-02
RMM:  11    -0.177067389569E+03    0.88468E-06   -0.22399E-05  7005   0.134E-02
  42 F= -.17706739E+03 E0= -.17707014E+03  d E =-.256760E-01  mag=     0.0000
       N       E                     dE             d eps       ncg     rms          rms(c)
DAV:   1    -0.177067401397E+03   -0.10943E-04   -0.33701E-03 12128   0.165E-01    0.349E-02
RMM:   2    -0.177067464789E+03   -0.63393E-04   -0.13748E-04 10597   0.368E-02    0.106E-01
RMM:   3    -0.177067403054E+03    0.61736E-04   -0.20871E-05  7164   0.141E-02    0.206E-02
RMM:   4    -0.177067402328E+03    0.72583E-06   -0.41879E-06  5842   0.739E-03
  43 F= -.17706740E+03 E0= -.17707016E+03  d E =-.256887E-01  mag=     0.0000
       N       E                     dE             d eps       ncg     rms          rms(c)
DAV:   1    -0.177075757935E+03   -0.83549E-02   -0.26812E+00 10912   0.451E+00    0.640E-01
RMM:   2    -0.177082769434E+03   -0.70115E-02   -0.73629E-02 10884   0.869E-01    0.877E-01
RMM:   3    -0.177080493739E+03    0.22757E-02   -0.67841E-03 11508   0.260E-01    0.483E-01
RMM:   4    -0.177080269757E+03    0.22398E-03   -0.21215E-03 11409   0.115E-01    0.527E-01
RMM:   5    -0.177080806172E+03   -0.53641E-03   -0.13656E-03 11062   0.942E-02    0.628E-01
RMM:   6    -0.177079380079E+03    0.14261E-02   -0.87890E-04 10925   0.725E-02    0.302E-01
RMM:   7    -0.177079433178E+03   -0.53099E-04   -0.61096E-04 10948   0.631E-02    0.293E-01
RMM:   8    -0.177078924540E+03    0.50864E-03   -0.33947E-04 10652   0.474E-02    0.410E-02
RMM:   9    -0.177078910169E+03    0.14371E-04   -0.40458E-05  8310   0.188E-02    0.340E-02
RMM:  10    -0.177078909202E+03    0.96725E-06   -0.12093E-05  6446   0.111E-02
  44 F= -.17707891E+03 E0= -.17708159E+03  d E =-.115069E-01  mag=     0.0000
       N       E                     dE             d eps       ncg     rms          rms(c)
DAV:   1    -0.177082013072E+03   -0.31029E-02   -0.25765E-01 10928   0.140E+00    0.195E-01
RMM:   2    -0.177082790857E+03   -0.77779E-03   -0.71830E-03 10888   0.270E-01    0.302E-01
RMM:   3    -0.177082416604E+03    0.37425E-03   -0.65349E-04 11208   0.820E-02    0.139E-01
RMM:   4    -0.177082422514E+03   -0.59102E-05   -0.21521E-04 10480   0.363E-02    0.162E-01
RMM:   5    -0.177082462569E+03   -0.40055E-04   -0.12560E-04  9712   0.297E-02    0.195E-01
RMM:   6    -0.177082330049E+03    0.13252E-03   -0.73905E-05  9548   0.217E-02    0.928E-02
RMM:   7    -0.177082330583E+03   -0.53368E-06   -0.53465E-05  8804   0.197E-02
  45 F= -.17708233E+03 E0= -.17708503E+03  d E =-.149283E-01  mag=     0.0000
       N       E                     dE             d eps       ncg     rms          rms(c)
DAV:   1    -0.177091935383E+03   -0.96053E-02   -0.51974E-01 10896   0.186E+00    0.332E-01
RMM:   2    -0.177093056492E+03   -0.11211E-02   -0.13829E-02 10880   0.385E-01    0.368E-01
RMM:   3    -0.177092922795E+03    0.13370E-03   -0.15707E-03 11918   0.111E-01    0.220E-01
RMM:   4    -0.177092919756E+03    0.30385E-05   -0.69923E-04 10856   0.671E-02    0.289E-01
RMM:   5    -0.177092853996E+03    0.65760E-04   -0.34466E-04 10758   0.470E-02    0.264E-01
RMM:   6    -0.177092582538E+03    0.27146E-03   -0.17057E-04 10122   0.325E-02    0.101E-01
RMM:   7    -0.177092602897E+03   -0.20358E-04   -0.82311E-05  9238   0.247E-02    0.104E-01
RMM:   8    -0.177092529304E+03    0.73593E-04   -0.32579E-05  7774   0.161E-02    0.407E-02
RMM:   9    -0.177092521290E+03    0.80137E-05   -0.72078E-06  6138   0.995E-03
  46 F= -.17709252E+03 E0= -.17709511E+03  d E =-.101907E-01  mag=     0.0000
       N       E                     dE             d eps       ncg     rms          rms(c)
DAV:   1    -0.177092642207E+03   -0.11290E-03   -0.50948E-03 11360   0.184E-01    0.346E-02
RMM:   2    -0.177092660277E+03   -0.18071E-04   -0.13782E-04 10472   0.384E-02    0.588E-02
RMM:   3    -0.177092646996E+03    0.13281E-04   -0.11774E-05  6042   0.117E-02    0.225E-02
RMM:   4    -0.177092646724E+03    0.27196E-06   -0.62449E-06  5670   0.954E-03
  47 F= -.17709265E+03 E0= -.17709525E+03  d E =-.103161E-01  mag=     0.0000
       N       E                     dE             d eps       ncg     rms          rms(c)
DAV:   1    -0.177099269960E+03   -0.66230E-02   -0.28672E-01 10896   0.155E+00    0.319E-01
RMM:   2    -0.177100184901E+03   -0.91494E-03   -0.89897E-03 10880   0.312E-01    0.376E-01
RMM:   3    -0.177099850734E+03    0.33417E-03   -0.10381E-03 11214   0.987E-02    0.254E-01
RMM:   4    -0.177099799788E+03    0.50947E-04   -0.38958E-04 10842   0.516E-02    0.229E-01
RMM:   5    -0.177099729505E+03    0.70283E-04   -0.30048E-04 10652   0.457E-02    0.236E-01
RMM:   6    -0.177099593041E+03    0.13646E-03   -0.16239E-04 10236   0.322E-02    0.149E-01
RMM:   7    -0.177099490650E+03    0.10239E-03   -0.84527E-05  9584   0.238E-02    0.700E-02
RMM:   8    -0.177099457257E+03    0.33393E-04   -0.31405E-05  7830   0.154E-02    0.251E-02
RMM:   9    -0.177099454711E+03    0.25456E-05   -0.64225E-06  6084   0.979E-03
  48 F= -.17709945E+03 E0= -.17710199E+03  d E =-.680799E-02  mag=     0.0000
       N       E                     dE             d eps       ncg     rms          rms(c)
DAV:   1    -0.177100443543E+03   -0.98629E-03   -0.13501E-01 10896   0.107E+00    0.218E-01
RMM:   2    -0.177100855840E+03   -0.41230E-03   -0.42188E-03 10880   0.214E-01    0.247E-01
RMM:   3    -0.177100769121E+03    0.86719E-04   -0.48016E-04 11079   0.664E-02    0.200E-01
RMM:   4    -0.177100675278E+03    0.93843E-04   -0.16877E-04 10317   0.341E-02    0.142E-01
RMM:   5    -0.177100668649E+03    0.66291E-05   -0.15384E-04  9938   0.332E-02    0.164E-01
RMM:   6    -0.177100595200E+03    0.73449E-04   -0.81139E-05  9746   0.234E-02    0.960E-02
RMM:   7    -0.177100550789E+03    0.44410E-04   -0.36610E-05  7934   0.166E-02    0.438E-02
RMM:   8    -0.177100538303E+03    0.12487E-04   -0.13362E-05  6294   0.120E-02    0.230E-02
RMM:   9    -0.177100535816E+03    0.24865E-05   -0.46283E-06  6004   0.871E-03
  49 F= -.17710054E+03 E0= -.17710302E+03  d E =-.788909E-02  mag=     0.0000
       N       E                     dE             d eps       ncg     rms          rms(c)
DAV:   1    -0.177105952369E+03   -0.54141E-02   -0.27348E-01 10880   0.157E+00    0.270E-01
RMM:   2    -0.177106842187E+03   -0.88982E-03   -0.78382E-03 10880   0.296E-01    0.362E-01
RMM:   3    -0.177106426655E+03    0.41553E-03   -0.82234E-04 11006   0.916E-02    0.222E-01
RMM:   4    -0.177106329065E+03    0.97590E-04   -0.23059E-04 10912   0.391E-02    0.160E-01
RMM:   5    -0.177106347836E+03   -0.18771E-04   -0.17341E-04 10092   0.342E-02    0.201E-01
RMM:   6    -0.177106226674E+03    0.12116E-03   -0.12569E-04 10129   0.284E-02    0.106E-01
RMM:   7    -0.177106183359E+03    0.43315E-04   -0.57799E-05  8790   0.201E-02    0.635E-02
RMM:   8    -0.177106159795E+03    0.23564E-04   -0.24640E-05  7258   0.143E-02    0.333E-02
RMM:   9    -0.177106153389E+03    0.64063E-05   -0.68549E-06  6080   0.102E-02
  50 F= -.17710615E+03 E0= -.17710859E+03  d E =-.561757E-02  mag=     0.0000
       N       E                     dE             d eps       ncg     rms          rms(c)
DAV:   1    -0.177108651024E+03   -0.24912E-02   -0.31358E-01 10880   0.168E+00    0.289E-01
RMM:   2    -0.177109668065E+03   -0.10170E-02   -0.90139E-03 10880   0.317E-01    0.389E-01
RMM:   3    -0.177109187548E+03    0.48052E-03   -0.93998E-04 11042   0.980E-02    0.233E-01
RMM:   4    -0.177109079952E+03    0.10760E-03   -0.27077E-04 11032   0.422E-02    0.172E-01
RMM:   5    -0.177109106737E+03   -0.26785E-04   -0.19788E-04 10331   0.364E-02    0.218E-01
RMM:   6    -0.177108963923E+03    0.14281E-03   -0.14234E-04 10216   0.301E-02    0.114E-01
RMM:   7    -0.177108915274E+03    0.48650E-04   -0.68238E-05  9122   0.216E-02    0.705E-02
RMM:   8    -0.177108886910E+03    0.28363E-04   -0.29289E-05  7648   0.149E-02    0.350E-02
RMM:   9    -0.177108879533E+03    0.73776E-05   -0.72736E-06  6096   0.103E-02
  51 F= -.17710888E+03 E0= -.17711126E+03  d E =-.834372E-02  mag=     0.0000
       N       E                     dE             d eps       ncg     rms          rms(c)
DAV:   1    -0.177113516173E+03   -0.46293E-02   -0.35394E-01 10880   0.170E+00    0.194E-01
RMM:   2    -0.177114525945E+03   -0.10098E-02   -0.92859E-03 10880   0.304E-01    0.330E-01
RMM:   3    -0.177114203668E+03    0.32228E-03   -0.62970E-04 11712   0.839E-02    0.145E-01
RMM:   4    -0.177114287280E+03   -0.83613E-04   -0.21113E-04 10773   0.358E-02    0.245E-01
RMM:   5    -0.177114313050E+03   -0.25769E-04   -0.92077E-05  9716   0.253E-02    0.208E-01
RMM:   6    -0.177114224856E+03    0.88194E-04   -0.12613E-04  9790   0.275E-02    0.147E-01
RMM:   7    -0.177114177897E+03    0.46959E-04   -0.81420E-05  9500   0.243E-02    0.973E-02
RMM:   8    -0.177114116262E+03    0.61635E-04   -0.34570E-05  8012   0.159E-02    0.200E-02
RMM:   9    -0.177114114900E+03    0.13619E-05   -0.51435E-06  6060   0.850E-03
  52 F= -.17711411E+03 E0= -.17711645E+03  d E =-.523537E-02  mag=     0.0000
       N       E                     dE             d eps       ncg     rms          rms(c)
DAV:   1    -0.177114376604E+03   -0.26034E-03   -0.33967E-02 11360   0.526E-01    0.606E-02
RMM:   2    -0.177114469085E+03   -0.92481E-04   -0.91112E-04 10880   0.948E-02    0.893E-02
RMM:   3    -0.177114448434E+03    0.20651E-04   -0.58230E-05  9514   0.268E-02    0.444E-02
RMM:   4    -0.177114453517E+03   -0.50831E-05   -0.16429E-05  6506   0.123E-02
  53 F= -.17711445E+03 E0= -.17711677E+03  d E =-.557398E-02  mag=     0.0000
       N       E                     dE             d eps       ncg     rms          rms(c)
DAV:   1    -0.177117489095E+03   -0.30407E-02   -0.35649E-01 10880   0.175E+00    0.200E-01
RMM:   2    -0.177118391974E+03   -0.90288E-03   -0.87845E-03 10884   0.296E-01    0.202E-01
RMM:   3    -0.177118437028E+03   -0.45054E-04   -0.60934E-04 11128   0.842E-02    0.218E-01
RMM:   4    -0.177118267519E+03    0.16951E-03   -0.15136E-04 11002   0.310E-02    0.150E-01
RMM:   5    -0.177118202898E+03    0.64621E-04   -0.53917E-05  8658   0.192E-02    0.686E-02
RMM:   6    -0.177118261837E+03   -0.58939E-04   -0.95953E-05  9848   0.250E-02    0.111E-01
RMM:   7    -0.177118201787E+03    0.60050E-04   -0.36675E-05  7810   0.167E-02    0.385E-02
RMM:   8    -0.177118190287E+03    0.11500E-04   -0.13059E-05  6178   0.124E-02    0.190E-02
RMM:   9    -0.177118188804E+03    0.14830E-05   -0.51663E-06  6028   0.850E-03
  54 F= -.17711819E+03 E0= -.17712042E+03  d E =-.373529E-02  mag=     0.0000
       N       E                     dE             d eps       ncg     rms          rms(c)
DAV:   1    -0.177118617944E+03   -0.42766E-03   -0.10620E-01 10880   0.954E-01    0.102E-01
RMM:   2    -0.177118890966E+03   -0.27302E-03   -0.26593E-03 10882   0.162E-01    0.127E-01
RMM:   3    -0.177118857354E+03    0.33612E-04   -0.16691E-04 10872   0.455E-02    0.703E-02
RMM:   4    -0.177118857684E+03   -0.33044E-06   -0.49152E-05  8632   0.184E-02
  55 F= -.17711886E+03 E0= -.17712104E+03  d E =-.440417E-02  mag=     0.0000
       N       E                     dE             d eps       ncg     rms          rms(c)
DAV:   1    -0.177122336279E+03   -0.34789E-02   -0.23441E-01 10880   0.143E+00    0.165E-01
RMM:   2    -0.177122992675E+03   -0.65640E-03   -0.59502E-03 10886   0.241E-01    0.219E-01
RMM:   3    -0.177122841012E+03    0.15166E-03   -0.42986E-04 10764   0.717E-02    0.143E-01
RMM:   4    -0.177122807674E+03    0.33338E-04   -0.10349E-04 10778   0.249E-02    0.130E-01
RMM:   5    -0.177122761022E+03    0.46652E-04   -0.36315E-05  7880   0.164E-02    0.633E-02
RMM:   6    -0.177122828033E+03   -0.67011E-04   -0.81623E-05  9520   0.234E-02    0.103E-01
RMM:   7    -0.177122756600E+03    0.71433E-04   -0.37696E-05  7860   0.173E-02    0.366E-02
RMM:   8    -0.177122747418E+03    0.91818E-05   -0.94998E-06  6118   0.110E-02
  56 F= -.17712275E+03 E0= -.17712487E+03  d E =-.388973E-02  mag=     0.0000
       N       E                     dE             d eps       ncg     rms          rms(c)
DAV:   1    -0.177124104930E+03   -0.13483E-02   -0.10101E+00 10880   0.297E+00    0.308E-01
RMM:   2    -0.177126670078E+03   -0.25651E-02   -0.25551E-02 10884   0.500E-01    0.381E-01
RMM:   3    -0.177126449699E+03    0.22038E-03   -0.16387E-03 11256   0.143E-01    0.294E-01
RMM:   4    -0.177126221435E+03    0.22826E-03   -0.38265E-04 12268   0.486E-02    0.232E-01
RMM:   5    -0.177126074345E+03    0.14709E-03   -0.17419E-04 10322   0.329E-02    0.147E-01
RMM:   6    -0.177126116600E+03   -0.42255E-04   -0.23507E-04 10546   0.369E-02    0.139E-01
RMM:   7    -0.177126037586E+03    0.79014E-04   -0.12859E-04  9746   0.287E-02    0.949E-02
RMM:   8    -0.177125988270E+03    0.49316E-04   -0.40153E-05  8464   0.170E-02    0.303E-02
RMM:   9    -0.177125984091E+03    0.41797E-05   -0.78546E-06  6160   0.104E-02
  57 F= -.17712598E+03 E0= -.17712795E+03  d E =-.712641E-02  mag=     0.0000
       N       E                     dE             d eps       ncg     rms          rms(c)
DAV:   1    -0.177128417862E+03   -0.24296E-02   -0.26096E-01 10912   0.152E+00    0.147E-01
RMM:   2    -0.177129125769E+03   -0.70791E-03   -0.65019E-03 10886   0.252E-01    0.202E-01
RMM:   3    -0.177128985123E+03    0.14065E-03   -0.45962E-04 10994   0.740E-02    0.124E-01
RMM:   4    -0.177128941173E+03    0.43950E-04   -0.97482E-05 10674   0.243E-02    0.105E-01
RMM:   5    -0.177128902973E+03    0.38200E-04   -0.35186E-05  7854   0.158E-02    0.626E-02
RMM:   6    -0.177128921953E+03   -0.18980E-04   -0.50129E-05  8830   0.195E-02    0.743E-02
RMM:   7    -0.177128891664E+03    0.30289E-04   -0.23469E-05  7412   0.147E-02    0.298E-02
RMM:   8    -0.177128884997E+03    0.66665E-05   -0.72032E-06  6048   0.100E-02
  58 F= -.17712888E+03 E0= -.17713078E+03  d E =-.290091E-02  mag=     0.0000
       N       E                     dE             d eps       ncg     rms          rms(c)
DAV:   1    -0.177129831204E+03   -0.93954E-03   -0.94140E-01 10880   0.289E+00    0.275E-01
RMM:   2    -0.177132215918E+03   -0.23847E-02   -0.23123E-02 10888   0.476E-01    0.352E-01
RMM:   3    -0.177131891284E+03    0.32463E-03   -0.15875E-03 11150   0.139E-01    0.244E-01
RMM:   4    -0.177131688489E+03    0.20279E-03   -0.34214E-04 12421   0.456E-02    0.194E-01
RMM:   5    -0.177131577620E+03    0.11087E-03   -0.13376E-04 10282   0.285E-02    0.126E-01
RMM:   6    -0.177131621161E+03   -0.43541E-04   -0.17194E-04 10714   0.326E-02    0.135E-01
RMM:   7    -0.177131533766E+03    0.87395E-04   -0.79814E-05  9380   0.228E-02    0.630E-02
RMM:   8    -0.177131507491E+03    0.26274E-04   -0.25742E-05  7176   0.143E-02    0.254E-02
RMM:   9    -0.177131505154E+03    0.23372E-05   -0.67660E-06  6078   0.103E-02
  59 F= -.17713151E+03 E0= -.17713325E+03  d E =-.552106E-02  mag=     0.0000
       N       E                     dE             d eps       ncg     rms          rms(c)
DAV:   1    -0.177134031916E+03   -0.25244E-02   -0.19242E-01 10976   0.129E+00    0.119E-01
RMM:   2    -0.177134470490E+03   -0.43857E-03   -0.47001E-03 10880   0.213E-01    0.115E-01
RMM:   3    -0.177134501120E+03   -0.30630E-04   -0.32177E-04 11072   0.638E-02    0.128E-01
RMM:   4    -0.177134418088E+03    0.83033E-04   -0.78731E-05  9944   0.227E-02    0.731E-02
RMM:   5    -0.177134400444E+03    0.17644E-04   -0.27510E-05  7622   0.147E-02    0.574E-02
RMM:   6    -0.177134395955E+03    0.44888E-05   -0.23938E-05  7196   0.149E-02
  60 F= -.17713440E+03 E0= -.17713606E+03  d E =-.289080E-02  mag=     0.0000
       N       E                     dE             d eps       ncg     rms          rms(c)
DAV:   1    -0.177135092001E+03   -0.69156E-03   -0.21248E-01 10880   0.135E+00    0.128E-01
RMM:   2    -0.177135600609E+03   -0.50861E-03   -0.51274E-03 10882   0.223E-01    0.146E-01
RMM:   3    -0.177135544554E+03    0.56055E-04   -0.34075E-04 10966   0.655E-02    0.116E-01
RMM:   4    -0.177135504569E+03    0.39984E-04   -0.80856E-05 10334   0.220E-02    0.724E-02
RMM:   5    -0.177135496755E+03    0.78143E-05   -0.31496E-05  7832   0.155E-02
  61 F= -.17713550E+03 E0= -.17713711E+03  d E =-.399160E-02  mag=     0.0000
       N       E                     dE             d eps       ncg     rms          rms(c)
DAV:   1    -0.177137549411E+03   -0.20448E-02   -0.23614E-01 10880   0.144E+00    0.139E-01
RMM:   2    -0.177138579285E+03   -0.10299E-02   -0.59249E-03 10882   0.236E-01    0.304E-01
RMM:   3    -0.177138033556E+03    0.54573E-03   -0.42214E-04 10845   0.713E-02    0.105E-01
RMM:   4    -0.177138041597E+03   -0.80419E-05   -0.10470E-04 10604   0.240E-02    0.117E-01
RMM:   5    -0.177137991537E+03    0.50060E-04   -0.40479E-05  8001   0.169E-02    0.607E-02
RMM:   6    -0.177138034493E+03   -0.42955E-04   -0.59653E-05  9190   0.209E-02    0.104E-01
RMM:   7    -0.177137978251E+03    0.56242E-04   -0.23676E-05  7370   0.146E-02    0.207E-02
RMM:   8    -0.177137976712E+03    0.15391E-05   -0.77440E-06  6082   0.963E-03
  62 F= -.17713798E+03 E0= -.17713953E+03  d E =-.247996E-02  mag=    -0.0000
       N       E                     dE             d eps       ncg     rms          rms(c)
DAV:   1    -0.177138606961E+03   -0.62871E-03   -0.16329E-01 10976   0.120E+00    0.108E-01
RMM:   2    -0.177139065740E+03   -0.45878E-03   -0.40377E-03 10880   0.196E-01    0.158E-01
RMM:   3    -0.177138968480E+03    0.97261E-04   -0.25674E-04 11000   0.578E-02    0.851E-02
RMM:   4    -0.177138960498E+03    0.79811E-05   -0.51764E-05  8834   0.183E-02
  63 F= -.17713896E+03 E0= -.17714045E+03  d E =-.346374E-02  mag=    -0.0000
       N       E                     dE             d eps       ncg     rms          rms(c)
DAV:   1    -0.177141442952E+03   -0.24745E-02   -0.29511E-01 10880   0.161E+00    0.174E-01
RMM:   2    -0.177142262486E+03   -0.81953E-03   -0.71717E-03 10880   0.266E-01    0.249E-01
RMM:   3    -0.177142057375E+03    0.20511E-03   -0.43954E-04 11544   0.741E-02    0.162E-01
RMM:   4    -0.177142030102E+03    0.27273E-04   -0.93693E-05 10848   0.237E-02    0.953E-02
RMM:   5    -0.177142132877E+03   -0.10278E-03   -0.14968E-04 10068   0.312E-02    0.205E-01
RMM:   6    -0.177142024705E+03    0.10817E-03   -0.78768E-05  9503   0.231E-02    0.895E-02
RMM:   7    -0.177141986849E+03    0.37856E-04   -0.30393E-05  7704   0.155E-02    0.439E-02
RMM:   8    -0.177141977930E+03    0.89187E-05   -0.10723E-05  6190   0.111E-02
  64 F= -.17714198E+03 E0= -.17714339E+03  d E =-.301743E-02  mag=    -0.0000
       N       E                     dE             d eps       ncg     rms          rms(c)
DAV:   1    -0.177142339679E+03   -0.35283E-03   -0.37853E-01 10880   0.183E+00    0.184E-01
RMM:   2    -0.177143578040E+03   -0.12384E-02   -0.95775E-03 10880   0.307E-01    0.352E-01
RMM:   3    -0.177143089412E+03    0.48863E-03   -0.59872E-04 11370   0.866E-02    0.122E-01
RMM:   4    -0.177143144427E+03   -0.55014E-04   -0.12932E-04 11332   0.276E-02    0.183E-01
RMM:   5    -0.177143148066E+03   -0.36395E-05   -0.55223E-05  8894   0.189E-02
  65 F= -.17714315E+03 E0= -.17714442E+03  d E =-.418757E-02  mag=    -0.0000
       N       E                     dE             d eps       ncg     rms          rms(c)
DAV:   1    -0.177144347870E+03   -0.12034E-02   -0.12268E-01 11008   0.105E+00    0.148E-01
RMM:   2    -0.177146387662E+03   -0.20398E-02   -0.35389E-03 10892   0.185E-01    0.524E-01
RMM:   3    -0.177144577617E+03    0.18100E-02   -0.47678E-04 10822   0.667E-02    0.111E-01
RMM:   4    -0.177144539678E+03    0.37939E-04   -0.10643E-04  9880   0.250E-02    0.894E-02
RMM:   5    -0.177144514885E+03    0.24793E-04   -0.20607E-05  7044   0.132E-02    0.618E-02
RMM:   6    -0.177144543028E+03   -0.28143E-04   -0.32064E-05  7668   0.166E-02    0.693E-02
RMM:   7    -0.177144507921E+03    0.35107E-04   -0.21164E-05  7140   0.160E-02    0.157E-02
RMM:   8    -0.177144506534E+03    0.13867E-05   -0.35626E-06  5974   0.736E-03
  66 F= -.17714451E+03 E0= -.17714580E+03  d E =-.135847E-02  mag=    -0.0000
       N       E                     dE             d eps       ncg     rms          rms(c)
DAV:   1    -0.177144739346E+03   -0.23143E-03   -0.11157E+00 10880   0.316E+00    0.280E-01
RMM:   2    -0.177147839091E+03   -0.30997E-02   -0.27082E-02 10880   0.510E-01    0.435E-01
RMM:   3    -0.177147110009E+03    0.72908E-03   -0.16586E-03 11300   0.148E-01    0.194E-01
RMM:   4    -0.177147050125E+03    0.59884E-04   -0.29844E-04 12408   0.433E-02    0.194E-01
RMM:   5    -0.177147130100E+03   -0.79975E-04   -0.17686E-04 10731   0.328E-02    0.240E-01
RMM:   6    -0.177147056761E+03    0.73339E-04   -0.14871E-04 10617   0.303E-02    0.168E-01
RMM:   7    -0.177146938697E+03    0.11806E-03   -0.11343E-04  9730   0.279E-02    0.901E-02
RMM:   8    -0.177146905734E+03    0.32963E-04   -0.42976E-05  8492   0.177E-02    0.454E-02
RMM:   9    -0.177146895880E+03    0.98541E-05   -0.10178E-05  6222   0.112E-02
  67 F= -.17714690E+03 E0= -.17714808E+03  d E =-.374781E-02  mag=    -0.0000
       N       E                     dE             d eps       ncg     rms          rms(c)
DAV:   1    -0.177148836505E+03   -0.19308E-02   -0.89339E-02 11056   0.869E-01    0.922E-02
RMM:   2    -0.177149077400E+03   -0.24089E-03   -0.22638E-03 10892   0.146E-01    0.121E-01
[...]
DAV:   1    -0.177180755511E+03    0.13001E-04   -0.29918E-02 10880   0.524E-01    0.628E-02
RMM:   2    -0.177180851202E+03   -0.95691E-04   -0.85151E-04 10890   0.911E-02    0.113E-01
RMM:   3    -0.177180794687E+03    0.56514E-04   -0.60048E-05  9352   0.282E-02    0.406E-02
RMM:   4    -0.177180796398E+03   -0.17104E-05   -0.14224E-05  6260   0.123E-02
 145 F= -.17718080E+03 E0= -.17718099E+03  d E =-.765415E-04  mag=    -0.0000
       N       E                     dE             d eps       ncg     rms          rms(c)
DAV:   1    -0.177180800742E+03   -0.60543E-05   -0.34494E-03 10912   0.179E-01    0.492E-02
RMM:   2    -0.177180903423E+03   -0.10268E-03   -0.14666E-04 10664   0.394E-02    0.132E-01
RMM:   3    -0.177180804049E+03    0.99374E-04   -0.26979E-05  7432   0.160E-02    0.354E-02
RMM:   4    -0.177180803816E+03    0.23310E-06   -0.11593E-05  6130   0.113E-02
 146 F= -.17718080E+03 E0= -.17718101E+03  d E =-.839601E-04  mag=    -0.0000
       N       E                     dE             d eps       ncg     rms          rms(c)
DAV:   1    -0.177180843178E+03   -0.39129E-04   -0.62976E-03 10960   0.239E-01    0.317E-02
RMM:   2    -0.177180893018E+03   -0.49840E-04   -0.18943E-04 10710   0.436E-02    0.864E-02
RMM:   3    -0.177180857135E+03    0.35884E-04   -0.14303E-05  5862   0.140E-02    0.245E-02
RMM:   4    -0.177180854975E+03    0.21595E-05   -0.47501E-06  5512   0.774E-03
 147 F= -.17718085E+03 E0= -.17718104E+03  d E =-.511590E-04  mag=    -0.0000
       N       E                     dE             d eps       ncg     rms          rms(c)
DAV:   1    -0.177180911016E+03   -0.53881E-04   -0.55899E-02 10880   0.707E-01    0.637E-02
RMM:   2    -0.177181040877E+03   -0.12986E-03   -0.13633E-03 10880   0.114E-01    0.799E-02
RMM:   3    -0.177181028419E+03    0.12458E-04   -0.68660E-05  9686   0.320E-02    0.442E-02
RMM:   4    -0.177181032303E+03   -0.38833E-05   -0.17048E-05  6694   0.128E-02
 148 F= -.17718103E+03 E0= -.17718120E+03  d E =-.228486E-03  mag=    -0.0000
       N       E                     dE             d eps       ncg     rms          rms(c)
DAV:   1    -0.177180473355E+03    0.55506E-03   -0.22354E-01 10880   0.141E+00    0.132E-01
RMM:   2    -0.177181126164E+03   -0.65281E-03   -0.54356E-03 10882   0.227E-01    0.215E-01
RMM:   3    -0.177180937980E+03    0.18818E-03   -0.28439E-04 11042   0.650E-02    0.103E-01
RMM:   4    -0.177180912316E+03    0.25664E-04   -0.68709E-05 10394   0.193E-02    0.849E-02
RMM:   5    -0.177180966486E+03   -0.54170E-04   -0.59625E-05  8938   0.198E-02    0.102E-01
RMM:   6    -0.177180913591E+03    0.52895E-04   -0.59873E-05  9214   0.213E-02    0.452E-02
RMM:   7    -0.177180902557E+03    0.11034E-04   -0.15726E-05  6342   0.122E-02    0.274E-02
RMM:   8    -0.177180898311E+03    0.42459E-05   -0.57766E-06  5998   0.990E-03
 149 F= -.17718090E+03 E0= -.17718104E+03  d E =-.944945E-04  mag=    -0.0000
       N       E                     dE             d eps       ncg     rms          rms(c)
DAV:   1    -0.177180864282E+03    0.38274E-04   -0.95630E-02 10880   0.925E-01    0.815E-02
RMM:   2    -0.177181122428E+03   -0.25815E-03   -0.23261E-03 10880   0.149E-01    0.138E-01
RMM:   3    -0.177181058629E+03    0.63798E-04   -0.12247E-04 10678   0.421E-02    0.531E-02
RMM:   4    -0.177181068744E+03   -0.10114E-04   -0.21497E-05  7002   0.134E-02    0.844E-02
RMM:   5    -0.177181062066E+03    0.66779E-05   -0.14488E-05  6500   0.133E-02
 150 F= -.17718106E+03 E0= -.17718124E+03  d E =-.258250E-03  mag=    -0.0000
       N       E                     dE             d eps       ncg     rms          rms(c)
DAV:   1    -0.177181081528E+03   -0.12784E-04   -0.99912E-04 11072   0.101E-01    0.568E-02
RMM:   2    -0.177181325565E+03   -0.24404E-03   -0.20767E-04 10316   0.397E-02    0.204E-01
RMM:   3    -0.177181084040E+03    0.24152E-03   -0.63110E-05  8756   0.224E-02    0.482E-02
RMM:   4    -0.177181066429E+03    0.17611E-04   -0.76068E-06  5518   0.885E-03    0.908E-03
RMM:   5    -0.177181066197E+03    0.23207E-06   -0.22690E-06  4844   0.536E-03
 151 F= -.17718107E+03 E0= -.17718123E+03  d E =-.413119E-05  mag=    -0.0000
       N       E                     dE             d eps       ncg     rms          rms(c)
DAV:   1    -0.177181117267E+03   -0.50838E-04   -0.78494E-03 10976   0.267E-01    0.222E-02
RMM:   2    -0.177181134785E+03   -0.17517E-04   -0.18762E-04 10630   0.423E-02    0.259E-02
RMM:   3    -0.177181133773E+03    0.10120E-05   -0.78720E-06  5708   0.123E-02
 152 F= -.17718113E+03 E0= -.17718129E+03  d E =-.717068E-04  mag=    -0.0000
       N       E                     dE             d eps       ncg     rms          rms(c)
DAV:   1    -0.177181146755E+03   -0.11970E-04   -0.31408E-02 10928   0.534E-01    0.494E-02
RMM:   2    -0.177181235428E+03   -0.88673E-04   -0.75639E-04 10880   0.843E-02    0.749E-02
RMM:   3    -0.177181213925E+03    0.21503E-04   -0.37349E-05  8182   0.240E-02    0.528E-02
RMM:   4    -0.177181205806E+03    0.81194E-05   -0.80972E-06  6144   0.930E-03
 153 F= -.17718121E+03 E0= -.17718135E+03  d E =-.143740E-03  mag=    -0.0000
       N       E                     dE             d eps       ncg     rms          rms(c)
DAV:   1    -0.177181291076E+03   -0.77151E-04   -0.32890E-04 12368   0.569E-02    0.545E-02
RMM:   2    -0.177181445697E+03   -0.15462E-03   -0.12379E-04  9656   0.302E-02    0.170E-01
RMM:   3    -0.177181288513E+03    0.15718E-03   -0.49393E-05  8576   0.203E-02    0.385E-02
RMM:   4    -0.177181280673E+03    0.78392E-05   -0.55226E-06  5396   0.793E-03
 154 F= -.17718128E+03 E0= -.17718141E+03  d E =-.748674E-04  mag=    -0.0000
       N       E                     dE             d eps       ncg     rms          rms(c)
DAV:   1    -0.177181441236E+03   -0.15272E-03   -0.28806E-03 10944   0.148E-01    0.317E-02
RMM:   2    -0.177181520715E+03   -0.79479E-04   -0.12348E-04 10482   0.340E-02    0.117E-01
RMM:   3    -0.177181443630E+03    0.77084E-04   -0.18031E-05  6698   0.135E-02    0.259E-02
RMM:   4    -0.177181441192E+03    0.24384E-05   -0.55988E-06  5554   0.800E-03
 155 F= -.17718144E+03 E0= -.17718157E+03  d E =-.235386E-03  mag=    -0.0000
       N       E                     dE             d eps       ncg     rms          rms(c)
DAV:   1    -0.177181431358E+03    0.12273E-04   -0.11534E-02 10880   0.295E-01    0.443E-02
RMM:   2    -0.177181492105E+03   -0.60748E-04   -0.32492E-04 10848   0.584E-02    0.102E-01
RMM:   3    -0.177181445332E+03    0.46773E-04   -0.28271E-05  7632   0.172E-02    0.319E-02
RMM:   4    -0.177181450595E+03   -0.52628E-05   -0.11399E-05  6152   0.114E-02
 156 F= -.17718145E+03 E0= -.17718157E+03  d E =-.244789E-03  mag=    -0.0000
       N       E                     dE             d eps       ncg     rms          rms(c)
DAV:   1    -0.177181491711E+03   -0.46379E-04   -0.27754E-03 10912   0.148E-01    0.308E-02
RMM:   2    -0.177181563459E+03   -0.71749E-04   -0.12303E-04 10556   0.340E-02    0.114E-01
RMM:   3    -0.177181495439E+03    0.68020E-04   -0.17637E-05  6580   0.129E-02    0.211E-02
RMM:   4    -0.177181492748E+03    0.26908E-05   -0.45977E-06  5478   0.731E-03
 157 F= -.17718149E+03 E0= -.17718162E+03  d E =-.286942E-03  mag=     0.0000
       N       E                     dE             d eps       ncg     rms          rms(c)
DAV:   1    -0.177181521632E+03   -0.26193E-04   -0.18810E-04 10960   0.393E-02    0.916E-03
RMM:   2    -0.177181525062E+03   -0.34298E-05   -0.72974E-06  5542   0.926E-03
 158 F= -.17718153E+03 E0= -.17718165E+03  d E =-.323136E-04  mag=     0.0000
       N       E                     dE             d eps       ncg     rms          rms(c)
DAV:   1    -0.177181578328E+03   -0.56696E-04   -0.16693E-03 10912   0.115E-01    0.252E-02
RMM:   2    -0.177181594364E+03   -0.16036E-04   -0.57780E-05  9410   0.244E-02    0.565E-02
RMM:   3    -0.177181577864E+03    0.16500E-04   -0.86526E-06  5508   0.111E-02    0.148E-02
RMM:   4    -0.177181578339E+03   -0.47502E-06   -0.32536E-06  5460   0.618E-03
 159 F= -.17718158E+03 E0= -.17718170E+03  d E =-.855915E-04  mag=     0.0000
       N       E                     dE             d eps       ncg     rms          rms(c)
DAV:   1    -0.177181543314E+03    0.34551E-04   -0.66011E-03 10880   0.228E-01    0.498E-02
RMM:   2    -0.177181651188E+03   -0.10787E-03   -0.24620E-04 10902   0.500E-02    0.144E-01
RMM:   3    -0.177181548634E+03    0.10255E-03   -0.35182E-05  7760   0.188E-02    0.425E-02
RMM:   4    -0.177181543162E+03    0.54715E-05   -0.94931E-06  6084   0.104E-02
 160 F= -.17718154E+03 E0= -.17718165E+03  d E =-.504141E-04  mag=    -0.0000
       N       E                     dE             d eps       ncg     rms          rms(c)
DAV:   1    -0.177181589396E+03   -0.40762E-04   -0.29706E-03 10880   0.156E-01    0.403E-02
RMM:   2    -0.177181666422E+03   -0.77026E-04   -0.14651E-04 10678   0.377E-02    0.120E-01
RMM:   3    -0.177181589711E+03    0.76710E-04   -0.29779E-05  7478   0.164E-02    0.162E-02
RMM:   4    -0.177181589891E+03   -0.17958E-06   -0.43866E-06  5440   0.776E-03
 161 F= -.17718159E+03 E0= -.17718171E+03  d E =-.971427E-04  mag=     0.0000
       N       E                     dE             d eps       ncg     rms          rms(c)
DAV:   1    -0.177181619319E+03   -0.29608E-04   -0.50382E-04 10912   0.684E-02    0.162E-02
RMM:   2    -0.177181632115E+03   -0.12795E-04   -0.21479E-05  6374   0.162E-02    0.511E-02
RMM:   3    -0.177181619676E+03    0.12438E-04   -0.66350E-06  5452   0.112E-02    0.112E-02
RMM:   4    -0.177181619235E+03    0.44139E-06   -0.10604E-06  5178   0.348E-03
 162 F= -.17718162E+03 E0= -.17718174E+03  d E =-.293442E-04  mag=    -0.0000
       N       E                     dE             d eps       ncg     rms          rms(c)
DAV:   1    -0.177181663053E+03   -0.43377E-04   -0.43683E-03 10880   0.198E-01    0.414E-02
RMM:   2    -0.177181711028E+03   -0.47975E-04   -0.16267E-04 10884   0.417E-02    0.997E-02
RMM:   3    -0.177181663782E+03    0.47246E-04   -0.19112E-05  6878   0.149E-02    0.257E-02
RMM:   4    -0.177181665830E+03   -0.20483E-05   -0.53400E-06  5774   0.853E-03
 163 F= -.17718167E+03 E0= -.17718179E+03  d E =-.759397E-04  mag=    -0.0000
       N       E                     dE             d eps       ncg     rms          rms(c)
DAV:   1    -0.177181692851E+03   -0.29069E-04   -0.12079E-03 11040   0.100E-01    0.270E-02
RMM:   2    -0.177181729815E+03   -0.36964E-04   -0.47144E-05  8656   0.229E-02    0.725E-02
RMM:   3    -0.177181695310E+03    0.34506E-04   -0.11679E-05  5940   0.128E-02    0.272E-02
RMM:   4    -0.177181694440E+03    0.87015E-06   -0.39163E-06  5560   0.632E-03
 164 F= -.17718169E+03 E0= -.17718183E+03  d E =-.286092E-04  mag=    -0.0000
       N       E                     dE             d eps       ncg     rms          rms(c)
DAV:   1    -0.177181695640E+03   -0.33071E-06   -0.18816E-04 10912   0.398E-02    0.159E-02
RMM:   2    -0.177181712935E+03   -0.17294E-04   -0.10038E-05  5956   0.997E-03    0.558E-02
RMM:   3    -0.177181695791E+03    0.17144E-04   -0.56003E-06  5392   0.944E-03    0.123E-02
RMM:   4    -0.177181695209E+03    0.58180E-06   -0.94566E-07  4705   0.334E-03
 165 F= -.17718170E+03 E0= -.17718183E+03  d E =-.293784E-04  mag=     0.0000
       N       E                     dE             d eps       ncg     rms          rms(c)
DAV:   1    -0.177181711582E+03   -0.15791E-04   -0.75521E-04 10912   0.829E-02    0.126E-02
RMM:   2    -0.177181715094E+03   -0.35126E-05   -0.22095E-05  6224   0.160E-02
 166 F= -.17718172E+03 E0= -.17718185E+03  d E =-.198855E-04  mag=     0.0000
       N       E                     dE             d eps       ncg     rms          rms(c)
DAV:   1    -0.177181718555E+03   -0.69732E-05   -0.52131E-04 10912   0.702E-02    0.178E-02
RMM:   2    -0.177181722572E+03   -0.40170E-05   -0.16176E-05  6060   0.129E-02
 167 F= -.17718172E+03 E0= -.17718186E+03  d E =-.273630E-04  mag=     0.0000
       N       E                     dE             d eps       ncg     rms          rms(c)
DAV:   1    -0.177181738338E+03   -0.19783E-04   -0.79566E-04 10912   0.859E-02    0.256E-02
RMM:   2    -0.177181761010E+03   -0.22672E-04   -0.29975E-05  7432   0.187E-02    0.652E-02
RMM:   3    -0.177181739641E+03    0.21370E-04   -0.95590E-06  5568   0.125E-02    0.227E-02
RMM:   4    -0.177181739106E+03    0.53440E-06   -0.32013E-06  5450   0.584E-03
 168 F= -.17718174E+03 E0= -.17718188E+03  d E =-.165347E-04  mag=    -0.0000
       N       E                     dE             d eps       ncg     rms          rms(c)
DAV:   1    -0.177181740319E+03   -0.67835E-06   -0.13799E-03 10880   0.110E-01    0.182E-02
RMM:   2    -0.177181745248E+03   -0.49283E-05   -0.38937E-05  7936   0.204E-02
 169 F= -.17718175E+03 E0= -.17718187E+03  d E =-.226758E-04  mag=    -0.0000
       N       E                     dE             d eps       ncg     rms          rms(c)
DAV:   1    -0.177181742393E+03   -0.20737E-05   -0.16625E-04 10848   0.419E-02    0.113E-02
RMM:   2    -0.177181746619E+03   -0.42263E-05   -0.74701E-06  5564   0.987E-03
 170 F= -.17718175E+03 E0= -.17718188E+03  d E =-.240474E-04  mag=    -0.0000
       N       E                     dE             d eps       ncg     rms          rms(c)
DAV:   1    -0.177181751619E+03   -0.92265E-05   -0.29940E-04 10448   0.537E-02    0.121E-02
RMM:   2    -0.177181759393E+03   -0.77733E-05   -0.10654E-05  5532   0.116E-02
 171 F= -.17718176E+03 E0= -.17718189E+03  d E =-.127736E-04  mag=    -0.0000
       N       E                     dE             d eps       ncg     rms          rms(c)
DAV:   1    -0.177181764608E+03   -0.12989E-04   -0.12054E-03 10880   0.107E-01    0.204E-02
RMM:   2    -0.177181770732E+03   -0.61232E-05   -0.31607E-05  6912   0.185E-02
 172 F= -.17718177E+03 E0= -.17718190E+03  d E =-.241125E-04  mag=    -0.0000
       N       E                     dE             d eps       ncg     rms          rms(c)
DAV:   1    -0.177181768969E+03   -0.43604E-05   -0.47445E-03 10880   0.209E-01    0.442E-02
RMM:   2    -0.177181816201E+03   -0.47232E-04   -0.14991E-04 10824   0.388E-02    0.872E-02
RMM:   3    -0.177181776907E+03    0.39294E-04   -0.19521E-05  7012   0.144E-02    0.437E-02
RMM:   4    -0.177181775044E+03    0.18632E-05   -0.83651E-06  6024   0.974E-03
 173 F= -.17718178E+03 E0= -.17718192E+03  d E =-.284246E-04  mag=    -0.0000
       N       E                     dE             d eps       ncg     rms          rms(c)
DAV:   1    -0.177181775834E+03    0.10731E-05   -0.22922E-04 11216   0.478E-02    0.234E-02
RMM:   2    -0.177181794139E+03   -0.18305E-04   -0.17331E-05  6430   0.133E-02    0.583E-02
RMM:   3    -0.177181776092E+03    0.18047E-04   -0.85139E-06  5456   0.122E-02    0.215E-02
RMM:   4    -0.177181774446E+03    0.16459E-05   -0.18191E-06  5029   0.419E-03
 174 F= -.17718177E+03 E0= -.17718191E+03  d E =0.597831E-06  mag=    -0.0000
       N       E                     dE             d eps       ncg     rms          rms(c)
DAV:   1    -0.177181778260E+03   -0.21683E-05   -0.38970E-04 10768   0.603E-02    0.962E-03
RMM:   2    -0.177181781990E+03   -0.37303E-05   -0.11144E-05  5526   0.113E-02
 175 F= -.17718178E+03 E0= -.17718192E+03  d E =-.694671E-05  mag=    -0.0000
       N       E                     dE             d eps       ncg     rms          rms(c)
DAV:   1    -0.177181789417E+03   -0.11157E-04   -0.36146E-05 10016   0.200E-02    0.107E-02
RMM:   2    -0.177181792025E+03   -0.26079E-05   -0.41253E-06  5448   0.713E-03
 176 F= -.17718179E+03 E0= -.17718193E+03  d E =-.100348E-04  mag=    -0.0000
       N       E                     dE             d eps       ncg     rms          rms(c)
DAV:   1    -0.177181814552E+03   -0.25135E-04   -0.28511E-04 10768   0.445E-02    0.145E-02
RMM:   2    -0.177181845680E+03   -0.31128E-04   -0.15403E-05  6428   0.121E-02    0.752E-02
RMM:   3    -0.177181814497E+03    0.31184E-04   -0.77722E-06  5368   0.111E-02    0.701E-03
RMM:   4    -0.177181813969E+03    0.52790E-06   -0.14707E-06  4886   0.386E-03
 177 F= -.17718181E+03 E0= -.17718195E+03  d E =-.319782E-04  mag=    -0.0000
       N       E                     dE             d eps       ncg     rms          rms(c)
DAV:   1    -0.177181822777E+03   -0.82803E-05   -0.10761E-03 10880   0.821E-02    0.173E-02
RMM:   2    -0.177181835426E+03   -0.12649E-04   -0.34015E-05  7646   0.189E-02    0.485E-02
RMM:   3    -0.177181823667E+03    0.11758E-04   -0.60469E-06  5494   0.997E-03    0.146E-02
RMM:   4    -0.177181823109E+03    0.55825E-06   -0.22054E-06  5292   0.484E-03
 178 F= -.17718182E+03 E0= -.17718196E+03  d E =-.411188E-04  mag=    -0.0000
       N       E                     dE             d eps       ncg     rms          rms(c)
DAV:   1    -0.177181825232E+03   -0.15646E-05   -0.10661E-04 10784   0.279E-02    0.100E-02
RMM:   2    -0.177181832781E+03   -0.75491E-05   -0.77841E-06  5616   0.930E-03
 179 F= -.17718183E+03 E0= -.17718196E+03  d E =-.507907E-04  mag=    -0.0000
       N       E                     dE             d eps       ncg     rms          rms(c)
DAV:   1    -0.177181834692E+03   -0.94596E-05   -0.10439E-04 11584   0.347E-02    0.106E-02
RMM:   2    -0.177181839945E+03   -0.52533E-05   -0.70441E-06  5458   0.910E-03
 180 F= -.17718184E+03 E0= -.17718199E+03  d E =-.716382E-05  mag=    -0.0000
       N       E                     dE             d eps       ncg     rms          rms(c)
DAV:   1    -0.177181840221E+03   -0.55291E-05   -0.79635E-05 11072   0.317E-02    0.117E-02
RMM:   2    -0.177181846895E+03   -0.66740E-05   -0.54562E-06  5476   0.789E-03
 181 F= -.17718185E+03 E0= -.17718199E+03  d E =-.141136E-04  mag=    -0.0000
       N       E                     dE             d eps       ncg     rms          rms(c)
DAV:   1    -0.177181846079E+03   -0.58580E-05   -0.28515E-04 11424   0.518E-02    0.162E-02
RMM:   2    -0.177181852373E+03   -0.62942E-05   -0.11871E-05  5816   0.119E-02
 182 F= -.17718185E+03 E0= -.17718200E+03  d E =-.195918E-04  mag=    -0.0000
       N       E                     dE             d eps       ncg     rms          rms(c)
DAV:   1    -0.177181843982E+03    0.20971E-05   -0.29583E-05  6272   0.242E-02    0.128E-02
RMM:   2    -0.177181858075E+03   -0.14094E-04   -0.98735E-06  5646   0.117E-02    0.518E-02
RMM:   3    -0.177181844178E+03    0.13897E-04   -0.41693E-06  5104   0.836E-03    0.638E-03
RMM:   4    -0.177181844007E+03    0.17081E-06   -0.80058E-07  4376   0.336E-03
 183 F= -.17718184E+03 E0= -.17718198E+03  d E =-.112261E-04  mag=    -0.0000
       N       E                     dE             d eps       ncg     rms          rms(c)
DAV:   1    -0.177181843849E+03    0.32868E-06   -0.31965E-06  5536   0.764E-03    0.451E-03
RMM:   2    -0.177181844718E+03   -0.86900E-06   -0.11764E-06  4828   0.451E-03
 184 F= -.17718184E+03 E0= -.17718198E+03  d E =-.119372E-04  mag=    -0.0000
       N       E                     dE             d eps       ncg     rms          rms(c)
DAV:   1    -0.177181850311E+03   -0.64613E-05   -0.96190E-05 10304   0.285E-02    0.767E-03
RMM:   2    -0.177181853139E+03   -0.28281E-05   -0.35062E-06  5444   0.673E-03
 185 F= -.17718185E+03 E0= -.17718199E+03  d E =-.842044E-05  mag=    -0.0000
       N       E                     dE             d eps       ncg     rms          rms(c)
DAV:   1    -0.177181854924E+03   -0.46131E-05   -0.14951E-04 10400   0.356E-02    0.114E-02
RMM:   2    -0.177181858643E+03   -0.37192E-05   -0.51650E-06  5452   0.749E-03
 186 F= -.17718186E+03 E0= -.17718200E+03  d E =-.139246E-04  mag=    -0.0000
       N       E                     dE             d eps       ncg     rms          rms(c)
DAV:   1    -0.177181857582E+03   -0.26580E-05   -0.70254E-05  9696   0.272E-02    0.114E-02
RMM:   2    -0.177181864085E+03   -0.65037E-05   -0.38830E-06  5464   0.679E-03
 187 F= -.17718186E+03 E0= -.17718200E+03  d E =-.544250E-05  mag=    -0.0000
