SrIr2O4 prototype                       
           1
     5.257044    0.000187    0.000000
     0.000193    5.494192   -0.000003
     0.000001   -0.000007   14.649168
   Sr   Ir   O 
   4   8  16
Direct configuration=     1
   0.50410800  0.01965300  0.10843000
   0.50410800  0.01965300  0.39157000
   0.50410800  0.98034700  0.89157000
   0.50410800  0.98034700  0.60843000
   0.99902600  0.00000000  0.00000000
   0.49902600  0.50000000  0.00000000
   0.04334900  0.92808300  0.25000000
   0.54334900  0.57191700  0.25000000
   0.49902600  0.50000000  0.50000000
   0.99902600  0.00000000  0.50000000
   0.54334900  0.42808300  0.75000000
   0.04334900  0.07191700  0.75000000
   0.25039100  0.75260900  0.49194500
   0.25039100  0.75260900  0.00805500
   0.98408200  0.04896800  0.14021300
   0.48408200  0.45103200  0.35978700
   0.48408200  0.45103200  0.14021300
   0.98408200  0.04896800  0.35978700
   0.38728400  0.87109600  0.25000000
   0.88728400  0.62890400  0.25000000
   0.25039100  0.24739100  0.50805500
   0.25039100  0.24739100  0.99194500
   0.48408200  0.54896800  0.64021300
   0.98408200  0.95103200  0.85978700
   0.98408200  0.95103200  0.64021300
   0.48408200  0.54896800  0.85978700
   0.88728400  0.37109600  0.75000000
   0.38728400  0.12890400  0.75000000
SrIr2O4 prototype                       
           1
     5.430359    0.000093    0.000000
     0.000096    5.637073   -0.000001
     0.000000   -0.000004   15.192884
   Sr   Ir   O 
   4   8  16
Direct configuration=     2
   0.50382642  0.01956374  0.10832300
   0.50382384  0.01956100  0.39168877
   0.50382190  0.98043730  0.89166544
   0.50381955  0.98044165  0.60832278
   0.00818903 -0.00000215 -0.00000329
   0.48452475  0.49999896 -0.00000683
   0.02730582  0.92885405  0.25000521
   0.55569590  0.55798556  0.25000225
   0.48454021  0.49999938  0.50000702
   0.00807621 -0.00000302  0.50000340
   0.55565118  0.44207452  0.74999669
   0.02733957  0.07112742  0.74999473
   0.25379854  0.75606935  0.49099915
   0.25375697  0.75609315  0.00900006
   0.98358458  0.04528069  0.13509840
   0.48939166  0.45528256  0.36480215
   0.48939242  0.45528192  0.13519680
   0.98358581  0.04528675  0.36489250
   0.38567230  0.87273820  0.24999905
   0.88216433  0.63157475  0.24999913
   0.25380194  0.24393454  0.50900135
   0.25375920  0.24391027  0.99099920
   0.48938617  0.54472513  0.63518345
   0.98357848  0.95471618  0.86493042
   0.98357963  0.95471046  0.63507872
   0.48938673  0.54472646  0.86481826
   0.88217077  0.36842364  0.75000102
   0.38566408  0.12720754  0.75000117
SrIr2O4 prototype                       
           1
     5.374284   -0.000787   -0.000001
    -0.000820    5.667401   -0.000012
    -0.000003   -0.000032   14.965396
   Sr   Ir   O 
   4   8  16
Direct configuration=     3
   0.50397732  0.01961095  0.10838078
   0.50397612  0.01960965  0.39162463
   0.50397522  0.98038953  0.89161390
   0.50397413  0.98039158  0.60838068
   0.00327868 -0.00000085 -0.00000151
   0.49229578  0.49999925 -0.00000314
   0.03590317  0.92844593  0.25000240
   0.54907908  0.56535447  0.25000104
   0.49230296  0.49999945  0.50000323
   0.00322632 -0.00000126  0.50000157
   0.54905887  0.43467428  0.74999848
   0.03591880  0.07154476  0.74999758
   0.25197255  0.75423915  0.49150994
   0.25195326  0.75425036  0.00848970
   0.98385107  0.04723099  0.13786046
   0.48654636  0.45303443  0.36209379
   0.48654672  0.45303413  0.13790572
   0.98385164  0.04723384  0.36213535
   0.38653602  0.87186957  0.24999956
   0.88490795  0.63016203  0.24999960
   0.25197399  0.24576281  0.50849029
   0.25195416  0.24575138  0.99150997
   0.48654365  0.54696939  0.63789958
   0.98384838  0.95276751  0.86215279
   0.98384891  0.95276483  0.63785141
   0.48654391  0.54697001  0.86210120
   0.88491084  0.36983702  0.75000047
   0.38653214  0.12810481  0.75000054
SrIr2O4 prototype                       
           1
     5.383714   -0.000639   -0.000001
    -0.000666    5.662301   -0.000010
    -0.000002   -0.000027   15.003651
   Sr   Ir   O 
   4   8  16
Direct configuration=     4
   0.50384299  0.02043641  0.10946643
   0.50383818  0.02043464  0.39052708
   0.50384580  0.97945318  0.89053870
   0.50384120  0.97945429  0.60946739
   0.00050773 -0.00003886  0.00002384
   0.47949285  0.49995102  0.00002742
   0.02692018  0.92769843  0.24998508
   0.56612971  0.55787218  0.24999263
   0.47940535  0.49994959  0.49997150
   0.00134286 -0.00003241  0.49997471
   0.56533935  0.44341336  0.75001119
   0.02676860  0.07227669  0.75001614
   0.25444796  0.75684033  0.48969661
   0.25442309  0.75683595  0.01030327
   0.98116138  0.04637189  0.12774871
   0.49033754  0.45567127  0.37192120
   0.49033887  0.45567344  0.12807856
   0.98115568  0.04638417  0.37224950
   0.38547216  0.87432440  0.24999877
   0.88667834  0.62525668  0.24999858
   0.25444803  0.24305117  0.51030169
   0.25442266  0.24305576  0.98969795
   0.49033581  0.54422084  0.62807092
   0.98115871  0.95352980  0.87226279
   0.98115268  0.95351736  0.62773818
   0.49033761  0.54421801  0.87192859
   0.88665567  0.37463297  0.75000135
   0.38548701  0.12554743  0.75000119
SrIr2O4 prototype                       
           1
     5.502343   -0.003238   -0.001026
    -0.003400    5.770024   -0.000319
    -0.002860   -0.000846   14.924194
   Sr   Ir   O 
   4   8  16
Direct configuration=     5
   0.50386579  0.02029834  0.10928109
   0.50386160  0.02029666  0.39071445
   0.50386782  0.97960980  0.89072226
   0.50386381  0.97961107  0.60928187
   0.00097856 -0.00003243  0.00001951
   0.48166827  0.49995943  0.00002221
   0.02844656  0.92782369  0.24998804
   0.56323275  0.55912323  0.24999407
   0.48159686  0.49995827  0.49997691
   0.00166289 -0.00002715  0.49997930
   0.56257279  0.44195123  0.75000902
   0.02832334  0.07215451  0.75001297
   0.25402727  0.75640519  0.49000618
   0.25400335  0.75640341  0.00999366
   0.98161843  0.04651567  0.12947496
   0.48969328  0.45523012  0.37024349
   0.48969445  0.45523189  0.12975622
   0.98161379  0.04652635  0.37052284
   0.38565286  0.87391383  0.24999890
   0.88637766  0.62607711  0.24999876
   0.25402773  0.24350466  0.50999245
   0.25400330  0.24350657  0.99000729
   0.48969154  0.54468048  0.62974884
   0.98161570  0.95340236  0.87053684
   0.98161079  0.95339157  0.62946468
   0.48969308  0.54467821  0.87025089
   0.88635906  0.37383075  0.75000120
   0.38566467  0.12597521  0.75000108
SrIr2O4 prototype                       
           1
     5.452889   -0.002155   -0.000599
    -0.002260    5.725116   -0.000190
    -0.001669   -0.000505   14.957318
   Sr   Ir   O 
   4   8  16
Direct configuration=     6
   0.50493768  0.02139462  0.11186121
   0.50502732  0.02141638  0.38809219
   0.50493449  0.97870067  0.88804124
   0.50502406  0.97867767  0.61195172
  -0.00421478 -0.00124071  0.00007636
   0.47039355  0.49994200  0.00039896
   0.01339108  0.94849180  0.25008337
   0.55519617  0.54021310  0.25001786
   0.46889034  0.50010148  0.49943653
  -0.00534387  0.00045519  0.50022264
   0.55796582  0.45790076  0.75015087
   0.01408710  0.05224259  0.74988030
   0.25661461  0.76118306  0.48751727
   0.25668381  0.76115938  0.01243903
   0.98037753  0.04257132  0.12277664
   0.49728396  0.46035641  0.37610629
   0.49730744  0.46038142  0.12385058
   0.98041902  0.04257084  0.37721110
   0.38563008  0.87302095  0.24999083
   0.90583231  0.62066170  0.24998557
   0.25662129  0.23895228  0.51245106
   0.25666981  0.23896599  0.98754171
   0.49724264  0.53984201  0.62379883
   0.98037826  0.95763005  0.87722065
   0.98041918  0.95763146  0.62274115
   0.49726598  0.53981823  0.87619034
   0.90458994  0.37964829  0.74998709
   0.38566319  0.12731106  0.74997863
SrIr2O4 prototype                       
           1
     5.443526   -0.001950   -0.000518
    -0.002044    5.716614   -0.000166
    -0.001443   -0.000440   14.963590
   Sr   Ir   O 
   4   8  16
Direct configuration=     7
   0.50449968  0.02094578  0.11077984
   0.50455217  0.02095825  0.38919114
   0.50450017  0.97907256  0.88916483
   0.50455041  0.97905915  0.61083276
  -0.00209623 -0.00074546  0.00005269
   0.47499235  0.49995117  0.00024138
   0.01952789  0.94003928  0.25004367
   0.55847805  0.54795065  0.25000827
   0.47407332  0.50004524  0.49966336
  -0.00248601  0.00025913  0.50012085
   0.55984171  0.45137668  0.75009141
   0.01989801  0.06039111  0.74993647
   0.25555883  0.75922812  0.48856026
   0.25558898  0.75921309  0.01141406
   0.98088594  0.04418557  0.12558398
   0.49418547  0.45825752  0.37364894
   0.49420240  0.45827372  0.12632537
   0.98090570  0.04418885  0.37440812
   0.38563955  0.87338623  0.24999422
   0.89789800  0.62287358  0.24999059
   0.25556378  0.24081403  0.51142062
   0.25558361  0.24082319  0.98857500
   0.49416488  0.54182039  0.62629230
   0.98088069  0.95590034  0.87441947
   0.98090583  0.95589755  0.62555898
   0.49417674  0.54180469  0.87370095
   0.89715253  0.37726502  0.74999244
   0.38566353  0.12676457  0.74998803
SrIr2O4 prototype                       
           1
     5.475460    0.002176   -0.000868
     0.002305    5.796266   -0.001078
    -0.002412   -0.002836   14.999091
   Sr   Ir   O 
   4   8  16
Direct configuration=     8
   0.50441606  0.02086017  0.11057556
   0.50446137  0.02087083  0.38939874
   0.50441713  0.97914352  0.88937709
   0.50445995  0.97913197  0.61062138
  -0.00169150 -0.00065103  0.00004821
   0.47587095  0.49995275  0.00021158
   0.02070065  0.93842618  0.25003615
   0.55910475  0.54942699  0.25000643
   0.47506351  0.50003433  0.49970618
  -0.00194001  0.00022162  0.50010160
   0.56020035  0.45013171  0.75008018
   0.02100786  0.06194578  0.74994704
   0.25535716  0.75885511  0.48875730
   0.25537993  0.75884176  0.01122044
   0.98098289  0.04449354  0.12611431
   0.49359369  0.45785715  0.37318474
   0.49360917  0.45787162  0.12679291
   0.98099874  0.04449761  0.37387860
   0.38564135  0.87345593  0.24999486
   0.89638208  0.62329592  0.24999158
   0.25536172  0.24116933  0.51122596
   0.25537598  0.24117760  0.98877020
   0.49357670  0.54219798  0.62676337
   0.98097687  0.95557030  0.87389029
   0.98099876  0.95556664  0.62609130
   0.49358657  0.54218388  0.87323068
   0.89573171  0.37681051  0.74999350
   0.38566361  0.12666029  0.74998981
SrIr2O4 prototype                       
           1
     5.485306    0.003448   -0.000976
     0.003646    5.820826   -0.001360
    -0.002710   -0.003575   15.010038
   Sr   Ir   O 
   4   8  16
Direct configuration=     9
   0.50338510  0.02128250  0.11256682
   0.50329355  0.02114786  0.38743713
   0.50317233  0.97920097  0.88744708
   0.50334773  0.97899940  0.61255628
  -0.00657389 -0.00575762 -0.00036289
   0.46895242  0.49909854 -0.00157832
   0.01512702  0.94236691  0.25023563
   0.56329349  0.54543722  0.25026206
   0.47469249  0.50000436  0.50147422
  -0.00591088  0.00128108  0.49938257
   0.56645115  0.45501382  0.75022810
   0.01470043  0.05857773  0.75023600
   0.25681882  0.76333817  0.48758550
   0.25704333  0.76295460  0.01240047
   0.98009178  0.04020885  0.12723013
   0.49900408  0.46099648  0.37183274
   0.49909547  0.46101135  0.12815206
   0.98010337  0.04025490  0.37285816
   0.38216216  0.86939453  0.24999650
   0.89831461  0.62392675  0.25000217
   0.25690766  0.23716719  0.51243291
   0.25686121  0.23719598  0.98759163
   0.49896964  0.53943460  0.62791807
   0.98008705  0.96017645  0.87278423
   0.98009686  0.96015825  0.62725443
   0.49903551  0.53945193  0.87208346
   0.89847039  0.37655108  0.75000250
   0.38229511  0.13112612  0.74999036
SrIr2O4 prototype                       
           1
     5.471516   -0.000048    0.000905
    -0.000076    5.824314   -0.000693
     0.002436   -0.001870   14.965299
   Sr   Ir   O 
   4   8  16
Direct configuration=    10
   0.50306908  0.02141141  0.11317934
   0.50293539  0.02123211  0.38683372
   0.50279062  0.97921846  0.88685339
   0.50300693  0.97895958  0.61315146
  -0.00806932 -0.00730952 -0.00048948
   0.46683173  0.49884006 -0.00212897
   0.01341754  0.94356654  0.25029703
   0.56457849  0.54422305  0.25034065
   0.47457887  0.49999555  0.50201808
  -0.00712840  0.00160404  0.49916138
   0.56836610  0.45649712  0.75027373
   0.01276778  0.05755492  0.75032478
   0.25726572  0.76470101  0.48722514
   0.25755229  0.76420511  0.01276354
   0.97981971  0.03890621  0.12757329
   0.50066175  0.46194979  0.37141696
   0.50077656  0.46196511  0.12857024
   0.97982988  0.03896475  0.37254418
   0.38109664  0.86816022  0.24999691
   0.89890685  0.62411816  0.25000545
   0.25738259  0.23594995  0.51280411
   0.25731740  0.23598469  0.98722903
   0.50062353  0.53859322  0.62827325
   0.97981310  0.96157724  0.87244408
   0.97981934  0.96155490  0.62761230
   0.50070643  0.53861980  0.87173056
   0.89930997  0.37647159  0.75000528
   0.38126144  0.13248492  0.74999058
SrIr2O4 prototype                       
           1
     5.458626   -0.003315    0.002663
    -0.003554    5.827575   -0.000070
     0.007247   -0.000277   14.923481
   Sr   Ir   O 
   4   8  16
Direct configuration=    11
   0.50288068  0.02253479  0.11454579
   0.50252440  0.02223607  0.38558502
   0.50208197  0.97832545  0.88540687
   0.50258212  0.97790645  0.61453842
  -0.01244696 -0.00951813 -0.00029593
   0.46167046  0.49878365 -0.00215125
   0.00787933  0.94276553  0.24992970
   0.56916848  0.54275239  0.25102070
   0.47064055  0.49889174  0.50241976
  -0.00904923  0.00456932  0.49872212
   0.57097752  0.46114680  0.74988272
   0.00627934  0.05672760  0.75032331
   0.26003315  0.76677063  0.48666362
   0.26048701  0.76624604  0.01337435
   0.97952053  0.03528658  0.12786372
   0.50454734  0.46373075  0.37138071
   0.50435466  0.46377174  0.12870950
   0.97949396  0.03568977  0.37197999
   0.37817499  0.86395405  0.24997756
   0.89926712  0.62545867  0.25003590
   0.26020684  0.23385936  0.51339331
   0.25949162  0.23284269  0.98662342
   0.50506087  0.53693715  0.62919939
   0.97948395  0.96476391  0.87182664
   0.97954818  0.96505240  0.62798084
   0.50469234  0.53701779  0.87102692
   0.90133961  0.37487383  0.75002508
   0.37839717  0.13662300  0.75001182
SrIr2O4 prototype                       
           1
     5.432846   -0.009850    0.006179
    -0.010511    5.834098    0.001175
     0.016868    0.002910   14.839844
   Sr   Ir   O 
   4   8  16
Direct configuration=    12
   0.50270365  0.02358374  0.11582686
   0.50214101  0.02317405  0.38441433
   0.50141861  0.97749122  0.88405083
   0.50218214  0.97692202  0.61583883
  -0.01655078 -0.01158388 -0.00011386
   0.45683386  0.49872806 -0.00217154
   0.00268934  0.94201423  0.24958600
   0.57346818  0.54138092  0.25165778
   0.46694894  0.49785826  0.50279685
  -0.01084695  0.00733846  0.49831041
   0.57342795  0.46549198  0.74951564
   0.00019856  0.05595111  0.75032274
   0.26262829  0.76870573  0.48613677
   0.26323787  0.76815411  0.01394657
   0.97923761  0.03190497  0.12813620
   0.50818965  0.46539667  0.37134619
   0.50770869  0.46546142  0.12883957
   0.97917759  0.03263032  0.37145123
   0.37543448  0.86002311  0.24995993
   0.89960554  0.62671113  0.25006434
   0.26285157  0.23190779  0.51394546
   0.26152761  0.22990890  0.98605552
   0.50921719  0.53539232  0.63006723
   0.97917808  0.96774080  0.87124768
   0.97929598  0.96831942  0.62832625
   0.50842711  0.53552365  0.87036684
   0.90324053  0.37338237  0.75004347
   0.37571571  0.14048709  0.75003190
SrIr2O4 prototype                       
           1
     5.451770   -0.005053    0.003598
    -0.005404    5.829310    0.000261
     0.009806    0.000571   14.901237
   Sr   Ir   O 
   4   8  16
Direct configuration=    13
   0.50234783  0.02567958  0.11839612
   0.50137567  0.02504918  0.38206639
   0.50009008  0.97582370  0.88133138
   0.50137673  0.97495312  0.61844711
  -0.02478075 -0.01571777  0.00025243
   0.44713777  0.49861152 -0.00221107
  -0.00771551  0.94050683  0.24889796
   0.58208503  0.53864401  0.25293463
   0.45954628  0.49578811  0.50355410
  -0.01444662  0.01287185  0.49748486
   0.57834659  0.47418045  0.74877848
  -0.01199273  0.05439215  0.75032308
   0.26783422  0.77257696  0.48507934
   0.26875400  0.77197089  0.01509340
   0.97866564  0.02514506  0.12868303
   0.51549366  0.46873076  0.37127597
   0.51443452  0.46884258  0.12909950
   0.97854039  0.02651478  0.37039107
   0.36993553  0.85216256  0.24992557
   0.90028554  0.62921503  0.25012120
   0.26815006  0.22800952  0.51505238
   0.26560647  0.22404718  0.98491631
   0.51754597  0.53230859  0.63180690
   0.97856971  0.97369123  0.87008635
   0.97879395  0.97484934  0.62901878
   0.51591355  0.53254161  0.86904222
   0.90704943  0.37040325  0.75008003
   0.37034500  0.14820791  0.75007248
SrIr2O4 prototype                       
           1
     5.428204   -0.004788    0.008527
    -0.005106    5.815942   -0.005014
     0.023251   -0.012900   14.861587
   Sr   Ir   O 
   4   8  16
Direct configuration=    14
   0.50261167  0.02414419  0.11649959
   0.50193529  0.02367396  0.38379959
   0.50106791  0.97704638  0.88333850
   0.50197602  0.97639850  0.61652145
  -0.01870650 -0.01267971 -0.00001966
   0.45428902  0.49870499 -0.00218359
  -0.00004107  0.94162044  0.24940394
   0.57573406  0.54064418  0.25199342
   0.46500893  0.49731245  0.50299368
  -0.01179802  0.00881726  0.49809398
   0.57470981  0.46780544  0.74932405
  -0.00299978  0.05554532  0.75032059
   0.26398964  0.76973372  0.48586107
   0.26468359  0.76916821  0.01424803
   0.97909455  0.03010232  0.12827885
   0.51010348  0.46628003  0.37132929
   0.50947116  0.46635795  0.12890901
   0.97901469  0.03099897  0.37117317
   0.37399852  0.85793069  0.24994948
   0.89978174  0.62737856  0.25007950
   0.26424736  0.23086391  0.51423595
   0.26260218  0.22834132  0.98575761
   0.51140839  0.53456348  0.63052397
   0.97901130  0.96932823  0.87094389
   0.97915900  0.97006211  0.62850788
   0.51039310  0.53472140  0.87002116
   0.90424308  0.37258449  0.75005353
   0.37429888  0.14255124  0.75004206
SrIr2O4 prototype                       
           1
     5.420381   -0.004700    0.010164
    -0.005008    5.811504   -0.006765
     0.027714   -0.017371   14.848424
   Sr   Ir   O 
   4   8  16
Direct configuration=    15
   0.50224746  0.02662261  0.11780363
   0.50103307  0.02548058  0.38255863
   0.50026876  0.97585808  0.88185444
   0.50113610  0.97495539  0.61795340
  -0.02255578 -0.01557531  0.00070369
   0.44893601  0.49750967 -0.00181073
  -0.00539311  0.93933110  0.24913886
   0.58004983  0.53844230  0.25125355
   0.45947584  0.50153319  0.50307004
  -0.01401031  0.01312364  0.49880162
   0.57986714  0.46535501  0.74907730
  -0.00938188  0.05356716  0.75000871
   0.26846119  0.77189356  0.48556986
   0.26897487  0.77162250  0.01466168
   0.97815494  0.02646386  0.12743373
   0.51324532  0.46747570  0.37286613
   0.51242078  0.46808564  0.12832742
   0.97837594  0.02805663  0.37105579
   0.37001486  0.85220284  0.24994020
   0.90215262  0.62868647  0.25010019
   0.26852544  0.22884173  0.51467648
   0.26591145  0.22497672  0.98533138
   0.51493416  0.53405124  0.62971940
   0.97812989  0.97266153  0.87160235
   0.97850600  0.97438789  0.62760586
   0.51337642  0.53386616  0.87058887
   0.90610928  0.37169909  0.75009011
   0.37032171  0.14882502  0.75001742
SrIr2O4 prototype                       
           1
     5.423697    0.001712    0.014324
     0.001866    5.819827   -0.006482
     0.039009   -0.016571   14.900121
   Sr   Ir   O 
   4   8  16
Direct configuration=    16
   0.50212491  0.02744825  0.11823801
   0.50073327  0.02608074  0.38214589
   0.50000357  0.97546157  0.88136042
   0.50085491  0.97447635  0.61842994
  -0.02383968 -0.01653813  0.00094454
   0.44715103  0.49711232 -0.00168618
  -0.00717722  0.93856926  0.24905096
   0.58148936  0.53770906  0.25100654
   0.45763097  0.50293767  0.50309656
  -0.01474856  0.01455705  0.49903791
   0.58158685  0.46453943  0.74899432
  -0.01150938  0.05290883  0.74990538
   0.26995221  0.77261190  0.48547269
   0.27040520  0.77243936  0.01479917
   0.97784244  0.02525262  0.12715211
   0.51429152  0.46787467  0.37337745
   0.51340463  0.46865999  0.12813372
   0.97816313  0.02707757  0.37101644
   0.36868682  0.85029710  0.24993688
   0.90294303  0.62912163  0.25010696
   0.26995143  0.22816918  0.51482239
   0.26701518  0.22385686  0.98518874
   0.51611032  0.53388013  0.62945115
   0.97783542  0.97377112  0.87182201
   0.97828895  0.97582649  0.62730621
   0.51437060  0.53358200  0.87077740
   0.90673146  0.37140449  0.75010198
   0.36899563  0.15091249  0.75001039
SrIr2O4 prototype                       
           1
     5.424673    0.003598    0.015548
     0.003888    5.822277   -0.006399
     0.042333   -0.016336   14.915334
   Sr   Ir   O 
   4   8  16
Direct configuration=    17
   0.50116916  0.03028595  0.11937114
   0.50002623  0.02858730  0.38119928
   0.49913259  0.97335665  0.87998869
   0.49997868  0.97290319  0.61963056
  -0.02557366 -0.01580349 -0.00001597
   0.44744200  0.49655350 -0.00178989
  -0.00959224  0.93923371  0.24893254
   0.58202580  0.53578057  0.25109473
   0.45803610  0.50568487  0.50261573
  -0.02022732  0.01612252  0.49932690
   0.58277080  0.46064570  0.74915521
  -0.01732495  0.05022576  0.74972366
   0.27395141  0.77541531  0.48555113
   0.27455315  0.77471424  0.01497835
   0.97610037  0.02210053  0.12618877
   0.51610008  0.46827892  0.37515677
   0.51464129  0.46921748  0.12713623
   0.97722540  0.02501031  0.37173880
   0.36475313  0.84391338  0.25000366
   0.90747961  0.62713546  0.25017705
   0.27492745  0.22677088  0.51504106
   0.27027749  0.22057334  0.98517656
   0.51802324  0.53443524  0.62793991
   0.97621654  0.97622792  0.87343114
   0.97691303  0.97967248  0.62586069
   0.51542665  0.53324623  0.87213716
   0.90972914  0.37173919  0.75018654
   0.36510683  0.15797292  0.75006358
SrIr2O4 prototype                       
           1
     5.431680    0.004548    0.016065
     0.004911    5.825176   -0.006668
     0.043782   -0.017016   14.924773
   Sr   Ir   O 
   4   8  16
Direct configuration=    18
   0.50088634  0.03112007  0.11970350
   0.49981793  0.02932412  0.38092173
   0.49887806  0.97273846  0.87958652
   0.49972085  0.97244115  0.61998272
  -0.02608330 -0.01558702 -0.00029750
   0.44752784  0.49638920 -0.00182033
  -0.01030265  0.93942974  0.24889801
   0.58218423  0.53521370  0.25112056
   0.45815451  0.50649202  0.50247468
  -0.02183934  0.01658429  0.49941209
   0.58312034  0.45950113  0.74920231
  -0.01903415  0.04943923  0.74967086
   0.27512645  0.77623779  0.48557379
   0.27577207  0.77538136  0.01503055
   0.97558980  0.02117490  0.12590643
   0.51663074  0.46839704  0.37567841
   0.51500538  0.46938093  0.12684362
   0.97694995  0.02440312  0.37195072
   0.36359861  0.84203879  0.25002361
   0.90881449  0.62655035  0.25019724
   0.27639125  0.22635836  0.51510479
   0.27123814  0.21960742  0.98517273
   0.51858653  0.53459780  0.62749657
   0.97573854  0.97695031  0.87390313
   0.97650783  0.98080313  0.62543688
   0.51573653  0.53314716  0.87253583
   0.91061056  0.37183656  0.75021109
   0.36396050  0.16004888  0.75007945
SrIr2O4 prototype                       
           1
     5.434478    0.004928    0.016272
     0.005319    5.826333   -0.006775
     0.044360   -0.017287   14.928541
   Sr   Ir   O 
   4   8  16
Direct configuration=    19
   0.49927523  0.03415367  0.12039859
   0.49843139  0.03136670  0.38023364
   0.49745211  0.97106619  0.87876481
   0.49839923  0.97151476  0.62080292
  -0.02406316 -0.01203704 -0.00113426
   0.45099603  0.49635736 -0.00177968
  -0.00743708  0.94461473  0.24877629
   0.57831386  0.53760090  0.25090181
   0.45998191  0.50697612  0.50200242
  -0.02431402  0.01116912  0.49979586
   0.57921893  0.45873471  0.74955277
  -0.01978901  0.04227516  0.74990015
   0.27790712  0.77896433  0.48590197
   0.27906202  0.77664924  0.01486186
   0.97325117  0.01815332  0.12533042
   0.51759911  0.46843806  0.37623615
   0.51504490  0.46910404  0.12622435
   0.97552694  0.02275070  0.37272381
   0.36069708  0.83599765  0.25013874
   0.91163987  0.62246985  0.25028094
   0.28097087  0.22612560  0.51491518
   0.27444945  0.21788522  0.98552105
   0.51973352  0.53508349  0.62692429
   0.97328223  0.97873060  0.87425377
   0.97405315  0.98399280  0.62480789
   0.51569402  0.53266197  0.87323800
   0.91291994  0.37255383  0.75026307
   0.36099121  0.16664693  0.75016320
SrIr2O4 prototype                       
           1
     5.433142    0.004746    0.016173
     0.005124    5.825780   -0.006724
     0.044084   -0.017158   14.926741
   Sr   Ir   O 
   4   8  16
Direct configuration=    20
   0.49863256  0.03536429  0.12067595
   0.49787848  0.03218180  0.37995914
   0.49688378  0.97039897  0.87843698
   0.49787227  0.97114524  0.62113017
  -0.02325790 -0.01062068 -0.00146810
   0.45237883  0.49634444 -0.00176351
  -0.00629492  0.94668347  0.24872773
   0.57677056  0.53855369  0.25081461
   0.46071052  0.50716915  0.50181399
  -0.02530034  0.00900850  0.49994896
   0.57766343  0.45842915  0.74969263
  -0.02008947  0.03941658  0.74999158
   0.27901555  0.78005212  0.48603289
   0.28037368  0.77715494  0.01479452
   0.97231903  0.01694776  0.12510062
   0.51798515  0.46845439  0.37645865
   0.51506074  0.46899352  0.12597728
   0.97495962  0.02209147  0.37303225
   0.35954065  0.83358728  0.25018467
   0.91276667  0.62084145  0.25031427
   0.28279684  0.22603242  0.51483947
   0.27572993  0.21719782  0.98565996
   0.52019086  0.53527719  0.62669596
   0.97230271  0.97944115  0.87439371
   0.97307427  0.98526569  0.62455699
   0.51567704  0.53246840  0.87351814
   0.91384065  0.37283989  0.75028378
   0.35980682  0.16927991  0.75019670
SrIr2O4 prototype                       
           1
     5.431423    0.002026    0.013091
     0.002223    5.815395   -0.008319
     0.035715   -0.021268   14.892388
   Sr   Ir   O 
   4   8  16
Direct configuration=    21
   0.49893944  0.03478610  0.12054349
   0.49814247  0.03179252  0.38009022
   0.49715508  0.97071761  0.87859353
   0.49812386  0.97132169  0.62097389
  -0.02364232 -0.01129707 -0.00130867
   0.45171864  0.49635065 -0.00177122
  -0.00684015  0.94569552  0.24875092
   0.57750740  0.53809861  0.25085624
   0.46036266  0.50707699  0.50190398
  -0.02482951  0.01004033  0.49987585
   0.57840606  0.45857503  0.74962583
  -0.01994612  0.04078177  0.74994793
   0.27848640  0.77953264  0.48597037
   0.27974747  0.77691347  0.01482669
   0.97276400  0.01752349  0.12521036
   0.51780085  0.46844660  0.37635240
   0.51505316  0.46904631  0.12609527
   0.97523047  0.02240628  0.37288495
   0.36009268  0.83473838  0.25016274
   0.91222864  0.62161918  0.25029837
   0.28192506  0.22607698  0.51487564
   0.27511858  0.21752614  0.98559364
   0.51997251  0.53518470  0.62680500
   0.97277039  0.97910177  0.87432688
   0.97354165  0.98465776  0.62467680
   0.51568515  0.53256084  0.87338436
   0.91340109  0.37270330  0.75027389
   0.36037237  0.16802241  0.75018068
SrIr2O4 prototype                       
           1
     5.431799    0.002621    0.013765
     0.002858    5.817665   -0.007970
     0.037544   -0.020370   14.899898
   Sr   Ir   O 
   4   8  16
Direct configuration=    22
   0.49792925  0.03669472  0.12077862
   0.49744271  0.03348333  0.37981336
   0.49582553  0.96887678  0.87814103
   0.49660327  0.97101463  0.62133093
  -0.01959731 -0.01252988  0.00039044
   0.45298474  0.49725534 -0.00215437
  -0.00580213  0.94944546  0.24885812
   0.57486293  0.53819495  0.24917232
   0.46122223  0.50718164  0.50207452
  -0.02523355  0.00971463  0.49994539
   0.57713298  0.46298074  0.75005897
  -0.02025409  0.03529319  0.74982841
   0.28072694  0.78103997  0.48646709
   0.28262939  0.77702978  0.01442757
   0.97108643  0.01490100  0.12490869
   0.51854102  0.46847589  0.37567289
   0.51487309  0.46855366  0.12603995
   0.97411235  0.02069030  0.37342671
   0.35897659  0.82972361  0.25025614
   0.91170242  0.61905215  0.25037121
   0.28561036  0.22630856  0.51441364
   0.27839364  0.21736395  0.98613920
   0.52085338  0.53509516  0.62709400
   0.97063738  0.97995430  0.87347473
   0.97121567  0.98671181  0.62519607
   0.51559783  0.53181261  0.87328630
   0.91210087  0.37241058  0.75029289
   0.35911409  0.17327114  0.75029519
SrIr2O4 prototype                       
           1
     5.424326   -0.002373    0.010216
    -0.002483    5.805562   -0.008540
     0.027839   -0.021848   14.875327
   Sr   Ir   O 
   4   8  16
Direct configuration=    23
   0.49814987  0.03627678  0.12072710
   0.49759564  0.03311315  0.37987402
   0.49611665  0.96928014  0.87824028
   0.49693572  0.97108198  0.62125277
  -0.02048232 -0.01226056  0.00001797
   0.45270788  0.49705714 -0.00207050
  -0.00602960  0.94862407  0.24883450
   0.57544179  0.53817438  0.24954142
   0.46103419  0.50715860  0.50203711
  -0.02514518  0.00978599  0.49993018
   0.57741073  0.46201592  0.74996401
  -0.02018607  0.03649528  0.74985474
   0.28023662  0.78070955  0.48635811
   0.28199927  0.77700407  0.01451489
   0.97145369  0.01547556  0.12497493
   0.51837938  0.46846951  0.37582175
   0.51491254  0.46866158  0.12605210
   0.97435689  0.02106614  0.37330809
   0.35922122  0.83082198  0.25023585
   0.91181778  0.61961439  0.25035533
   0.28480456  0.22625753  0.51451470
   0.27767727  0.21739905  0.98601951
   0.52066066  0.53511464  0.62703064
   0.97110402  0.97976794  0.87366153
   0.97172391  0.98626212  0.62508234
   0.51561704  0.53197650  0.87330781
   0.91238524  0.37247482  0.75028879
   0.35938861  0.17212174  0.75027003
SrIr2O4 prototype                       
           1
     5.420784   -0.004740    0.008534
    -0.005013    5.799827   -0.008809
     0.023240   -0.022549   14.863684
   Sr   Ir   O 
   4   8  16
Direct configuration=    24
   0.49773799  0.03754888  0.12089824
   0.49744084  0.03474461  0.37961662
   0.49551592  0.96803686  0.87798390