Automatically generated mesh
     132
Reciprocal lattice
    0.00000000000000    0.00000000000000    0.00000000000000             1
    0.12500000000000    0.00000000000000    0.00000000000000             2
    0.25000000000000    0.00000000000000    0.00000000000000             2
    0.37500000000000    0.00000000000000    0.00000000000000             2
    0.50000000000000    0.00000000000000    0.00000000000000             1
    0.00000000000000    0.12500000000000    0.00000000000000             2
    0.12500000000000    0.12500000000000    0.00000000000000             2
    0.25000000000000    0.12500000000000    0.00000000000000             2
    0.37500000000000    0.12500000000000    0.00000000000000             2
    0.50000000000000    0.12500000000000    0.00000000000000             2
   -0.37500000000000    0.12500000000000    0.00000000000000             2
   -0.25000000000000    0.12500000000000    0.00000000000000             2
   -0.12500000000000    0.12500000000000    0.00000000000000             2
    0.00000000000000    0.25000000000000    0.00000000000000             2
    0.12500000000000    0.25000000000000    0.00000000000000             2
    0.25000000000000    0.25000000000000    0.00000000000000             2
    0.37500000000000    0.25000000000000    0.00000000000000             2
    0.50000000000000    0.25000000000000    0.00000000000000             2
   -0.37500000000000    0.25000000000000    0.00000000000000             2
   -0.25000000000000    0.25000000000000    0.00000000000000             2
   -0.12500000000000    0.25000000000000    0.00000000000000             2
    0.00000000000000    0.37500000000000    0.00000000000000             2
    0.12500000000000    0.37500000000000    0.00000000000000             2
    0.25000000000000    0.37500000000000    0.00000000000000             2
    0.37500000000000    0.37500000000000    0.00000000000000             2
    0.50000000000000    0.37500000000000    0.00000000000000             2
   -0.37500000000000    0.37500000000000    0.00000000000000             2
   -0.25000000000000    0.37500000000000    0.00000000000000             2
   -0.12500000000000    0.37500000000000    0.00000000000000             2
    0.00000000000000    0.50000000000000    0.00000000000000             1
    0.12500000000000    0.50000000000000    0.00000000000000             2
    0.25000000000000    0.50000000000000    0.00000000000000             2
    0.37500000000000    0.50000000000000    0.00000000000000             2
    0.50000000000000    0.50000000000000    0.00000000000000             1
    0.00000000000000    0.00000000000000    0.25000000000000             2
    0.12500000000000    0.00000000000000    0.25000000000000             2
    0.25000000000000    0.00000000000000    0.25000000000000             2
    0.37500000000000    0.00000000000000    0.25000000000000             2
    0.50000000000000    0.00000000000000    0.25000000000000             2
   -0.37500000000000    0.00000000000000    0.25000000000000             2
   -0.25000000000000    0.00000000000000    0.25000000000000             2
   -0.12500000000000    0.00000000000000    0.25000000000000             2
    0.00000000000000    0.12500000000000    0.25000000000000             2
    0.12500000000000    0.12500000000000    0.25000000000000             2
    0.25000000000000    0.12500000000000    0.25000000000000             2
    0.37500000000000    0.12500000000000    0.25000000000000             2
    0.50000000000000    0.12500000000000    0.25000000000000             2
   -0.37500000000000    0.12500000000000    0.25000000000000             2
   -0.25000000000000    0.12500000000000    0.25000000000000             2
   -0.12500000000000    0.12500000000000    0.25000000000000             2
    0.00000000000000    0.25000000000000    0.25000000000000             2
    0.12500000000000    0.25000000000000    0.25000000000000             2
    0.25000000000000    0.25000000000000    0.25000000000000             2
    0.37500000000000    0.25000000000000    0.25000000000000             2
    0.50000000000000    0.25000000000000    0.25000000000000             2
   -0.37500000000000    0.25000000000000    0.25000000000000             2
   -0.25000000000000    0.25000000000000    0.25000000000000             2
   -0.12500000000000    0.25000000000000    0.25000000000000             2
    0.00000000000000    0.37500000000000    0.25000000000000             2
    0.12500000000000    0.37500000000000    0.25000000000000             2
    0.25000000000000    0.37500000000000    0.25000000000000             2
    0.37500000000000    0.37500000000000    0.25000000000000             2
    0.50000000000000    0.37500000000000    0.25000000000000             2
   -0.37500000000000    0.37500000000000    0.25000000000000             2
   -0.25000000000000    0.37500000000000    0.25000000000000             2
   -0.12500000000000    0.37500000000000    0.25000000000000             2
    0.00000000000000    0.50000000000000    0.25000000000000             2
    0.12500000000000    0.50000000000000    0.25000000000000             2
    0.25000000000000    0.50000000000000    0.25000000000000             2
    0.37500000000000    0.50000000000000    0.25000000000000             2
    0.50000000000000    0.50000000000000    0.25000000000000             2
   -0.37500000000000    0.50000000000000    0.25000000000000             2
   -0.25000000000000    0.50000000000000    0.25000000000000             2
   -0.12500000000000    0.50000000000000    0.25000000000000             2
    0.00000000000000   -0.37500000000000    0.25000000000000             2
    0.12500000000000   -0.37500000000000    0.25000000000000             2
    0.25000000000000   -0.37500000000000    0.25000000000000             2
    0.37500000000000   -0.37500000000000    0.25000000000000             2
    0.50000000000000   -0.37500000000000    0.25000000000000             2
   -0.37500000000000   -0.37500000000000    0.25000000000000             2
   -0.25000000000000   -0.37500000000000    0.25000000000000             2
   -0.12500000000000   -0.37500000000000    0.25000000000000             2
    0.00000000000000   -0.25000000000000    0.25000000000000             2
    0.12500000000000   -0.25000000000000    0.25000000000000             2
    0.25000000000000   -0.25000000000000    0.25000000000000             2
    0.37500000000000   -0.25000000000000    0.25000000000000             2
    0.50000000000000   -0.25000000000000    0.25000000000000             2
   -0.37500000000000   -0.25000000000000    0.25000000000000             2
   -0.25000000000000   -0.25000000000000    0.25000000000000             2
   -0.12500000000000   -0.25000000000000    0.25000000000000             2
    0.00000000000000   -0.12500000000000    0.25000000000000             2
    0.12500000000000   -0.12500000000000    0.25000000000000             2
    0.25000000000000   -0.12500000000000    0.25000000000000             2
    0.37500000000000   -0.12500000000000    0.25000000000000             2
    0.50000000000000   -0.12500000000000    0.25000000000000             2
   -0.37500000000000   -0.12500000000000    0.25000000000000             2
   -0.25000000000000   -0.12500000000000    0.25000000000000             2
   -0.12500000000000   -0.12500000000000    0.25000000000000             2
    0.00000000000000    0.00000000000000    0.50000000000000             1
    0.12500000000000    0.00000000000000    0.50000000000000             2
    0.25000000000000    0.00000000000000    0.50000000000000             2
    0.37500000000000    0.00000000000000    0.50000000000000             2
    0.50000000000000    0.00000000000000    0.50000000000000             1
    0.00000000000000    0.12500000000000    0.50000000000000             2
    0.12500000000000    0.12500000000000    0.50000000000000             2
    0.25000000000000    0.12500000000000    0.50000000000000             2
    0.37500000000000    0.12500000000000    0.50000000000000             2
    0.50000000000000    0.12500000000000    0.50000000000000             2
   -0.37500000000000    0.12500000000000    0.50000000000000             2
   -0.25000000000000    0.12500000000000    0.50000000000000             2
   -0.12500000000000    0.12500000000000    0.50000000000000             2
    0.00000000000000    0.25000000000000    0.50000000000000             2
    0.12500000000000    0.25000000000000    0.50000000000000             2
    0.25000000000000    0.25000000000000    0.50000000000000             2
    0.37500000000000    0.25000000000000    0.50000000000000             2
    0.50000000000000    0.25000000000000    0.50000000000000             2
   -0.37500000000000    0.25000000000000    0.50000000000000             2
   -0.25000000000000    0.25000000000000    0.50000000000000             2
   -0.12500000000000    0.25000000000000    0.50000000000000             2
    0.00000000000000    0.37500000000000    0.50000000000000             2
    0.12500000000000    0.37500000000000    0.50000000000000             2
    0.25000000000000    0.37500000000000    0.50000000000000             2
    0.37500000000000    0.37500000000000    0.50000000000000             2
    0.50000000000000    0.37500000000000    0.50000000000000             2
   -0.37500000000000    0.37500000000000    0.50000000000000             2
   -0.25000000000000    0.37500000000000    0.50000000000000             2
   -0.12500000000000    0.37500000000000    0.50000000000000             2
    0.00000000000000    0.50000000000000    0.50000000000000             1
    0.12500000000000    0.50000000000000    0.50000000000000             2
    0.25000000000000    0.50000000000000    0.50000000000000             2
    0.37500000000000    0.50000000000000    0.50000000000000             2
    0.50000000000000    0.50000000000000    0.50000000000000             1
Tetrahedra
       768    0.00065104166667
         2         1         2         6        36
         2         2         6         7        36
         2         6         7        36        44
         2         1         6        35        36
         2         6        35        36        43
         2         6        36        43        44
         2         2         3         7        37
         2         3         7         8        37
         2         7         8        37        45
         2         2         7        36        37
         2         7        36        37        44
         2         7        37        44        45
         2         3         4         8        38
         2         4         8         9        38
         2         8         9        38        46
         2         3         8        37        38
         2         8        37        38        45
         2         8        38        45        46
         2         4         5         9        39
         2         5         9        10        39
         2         9        10        39        47
         2         4         9        38        39
         2         9        38        39        46
         2         9        39        46        47
         2         4         5        10        40
         2         4        10        11        40
         2        10        11        40        48
         2         5        10        39        40
         2        10        39        40        47
         2        10        40        47        48
         2         3         4        11        41
         2         3        11        12        41
         2        11        12        41        49
         2         4        11        40        41
         2        11        40        41        48
         2        11        41        48        49
         2         2         3        12        42
         2         2        12        13        42
         2        12        13        42        50
         2         3        12        41        42
         2        12        41        42        49
         2        12        42        49        50
         2         1         2        13        35
         2         1         6        13        35
         2         6        13        35        43
         2         2        13        35        42
         2        13        35        42        50
         2        13        35        43        50
         2         6         7        14        44
         2         7        14        15        44
         2        14        15        44        52
         2         6        14        43        44
         2        14        43        44        51
         2        14        44        51        52
         2         7         8        15        45
         2         8        15        16        45
         2        15        16        45        53
         2         7        15        44        45
         2        15        44        45        52
         2        15        45        52        53
         2         8         9        16        46
         2         9        16        17        46
         2        16        17        46        54
         2         8        16        45        46
         2        16        45        46        53
         2        16        46        53        54
         2         9        10        17        47
         2        10        17        18        47
         2        17        18        47        55
         2         9        17        46        47
         2        17        46        47        54
         2        17        47        54        55
         2        10        11        18        48
         2        11        18        19        48
         2        18        19        48        56
         2        10        18        47        48
         2        18        47        48        55
         2        18        48        55        56
         2        11        12        19        49
         2        12        19        20        49
         2        19        20        49        57
         2        11        19        48        49
         2        19        48        49        56
         2        19        49        56        57
         2        12        13        20        50
         2        13        20        21        50
         2        20        21        50        58
         2        12        20        49        50
         2        20        49        50        57
         2        20        50        57        58
         2         6        13        21        43
         2         6        14        21        43
         2        14        21        43        51
         2        13        21        43        50
         2        21        43        50        58
         2        21        43        51        58
         2        14        15        22        52
         2        15        22        23        52
         2        22        23        52        60
         2        14        22        51        52
         2        22        51        52        59
         2        22        52        59        60
         2        15        16        23        53
         2        16        23        24        53
         2        23        24        53        61
         2        15        23        52        53
         2        23        52        53        60
         2        23        53        60        61
         2        16        17        24        54
         2        17        24        25        54
         2        24        25        54        62
         2        16        24        53        54
         2        24        53        54        61
         2        24        54        61        62
         2        17        18        25        55
         2        18        25        26        55
         2        25        26        55        63
         2        17        25        54        55
         2        25        54        55        62
         2        25        55        62        63
         2        18        19        26        56
         2        19        26        27        56
         2        26        27        56        64
         2        18        26        55        56
         2        26        55        56        63
         2        26        56        63        64
         2        19        20        27        57
         2        20        27        28        57
         2        27        28        57        65
         2        19        27        56        57
         2        27        56        57        64
         2        27        57        64        65
         2        20        21        28        58
         2        21        28        29        58
         2        28        29        58        66
         2        20        28        57        58
         2        28        57        58        65
         2        28        58        65        66
         2        14        21        29        51
         2        14        22        29        51
         2        22        29        51        59
         2        21        29        51        58
         2        29        51        58        66
         2        29        51        59        66
         2        22        23        30        60
         2        23        30        31        60
         2        30        31        60        68
         2        22        30        59        60
         2        30        59        60        67
         2        30        60        67        68
         2        23        24        31        61
         2        24        31        32        61
         2        31        32        61        69
         2        23        31        60        61
         2        31        60        61        68
         2        31        61        68        69
         2        24        25        32        62
         2        25        32        33        62
         2        32        33        62        70
         2        24        32        61        62
         2        32        61        62        69
         2        32        62        69        70
         2        25        26        33        63
         2        26        33        34        63
         2        33        34        63        71
         2        25        33        62        63
         2        33        62        63        70
         2        33        63        70        71
         2        26        27        34        64
         2        27        33        34        64
         2        33        34        64        72
         2        26        34        63        64
         2        34        63        64        71
         2        34        64        71        72
         2        27        28        33        65
         2        28        32        33        65
         2        32        33        65        73
         2        27        33        64        65
         2        33        64        65        72
         2        33        65        72        73
         2        28        29        32        66
         2        29        31        32        66
         2        31        32        66        74
         2        28        32        65        66
         2        32        65        66        73
         2        32        66        73        74
         2        22        29        31        59
         2        22        30        31        59
         2        30        31        59        67
         2        29        31        59        66
         2        31        59        66        74
         2        31        59        67        74
         2        22        30        31        68
         2        22        29        31        68
         2        22        29        68        76
         2        22        30        67        68
         2        22        67        68        75
         2        22        68        75        76
         2        29        31        32        69
         2        28        29        32        69
         2        28        29        69        77
         2        29        31        68        69
         2        29        68        69        76
         2        29        69        76        77
         2        28        32        33        70
         2        27        28        33        70
         2        27        28        70        78
         2        28        32        69        70
         2        28        69        70        77
         2        28        70        77        78
         2        27        33        34        71
         2        26        27        34        71
         2        26        27        71        79
         2        27        33        70        71
         2        27        70        71        78
         2        27        71        78        79
         2        26        33        34        72
         2        25        26        33        72
         2        25        26        72        80
         2        26        34        71        72
         2        26        71        72        79
         2        26        72        79        80
         2        25        32        33        73
         2        24        25        32        73
         2        24        25        73        81
         2        25        33        72        73
         2        25        72        73        80
         2        25        73        80        81
         2        24        31        32        74
         2        23        24        31        74
         2        23        24        74        82
         2        24        32        73        74
         2        24        73        74        81
         2        24        74        81        82
         2        23        30        31        67
         2        22        23        30        67
         2        22        23        67        75
         2        23        31        67        74
         2        23        67        74        82
         2        23        67        75        82
         2        14        22        29        76
         2        14        21        29        76
         2        14        21        76        84
         2        14        22        75        76
         2        14        75        76        83
         2        14        76        83        84
         2        21        28        29        77
         2        20        21        28        77
         2        20        21        77        85
         2        21        29        76        77
         2        21        76        77        84
         2        21        77        84        85
         2        20        27        28        78
         2        19        20        27        78
         2        19        20        78        86
         2        20        28        77        78
         2        20        77        78        85
         2        20        78        85        86
         2        19        26        27        79
         2        18        19        26        79
         2        18        19        79        87
         2        19        27        78        79
         2        19        78        79        86
         2        19        79        86        87
         2        18        25        26        80
         2        17        18        25        80
         2        17        18        80        88
         2        18        26        79        80
         2        18        79        80        87
         2        18        80        87        88
         2        17        24        25        81
         2        16        17        24        81
         2        16        17        81        89
         2        17        25        80        81
         2        17        80        81        88
         2        17        81        88        89
         2        16        23        24        82
         2        15        16        23        82
         2        15        16        82        90
         2        16        24        81        82
         2        16        81        82        89
         2        16        82        89        90
         2        15        22        23        75
         2        14        15        22        75
         2        14        15        75        83
         2        15        23        75        82
         2        15        75        82        90
         2        15        75        83        90
         2         6        14        21        84
         2         6        13        21        84
         2         6        13        84        92
         2         6        14        83        84
         2         6        83        84        91
         2         6        84        91        92
         2        13        20        21        85
         2        12        13        20        85
         2        12        13        85        93
         2        13        21        84        85
         2        13        84        85        92
         2        13        85        92        93
         2        12        19        20        86
         2        11        12        19        86
         2        11        12        86        94
         2        12        20        85        86
         2        12        85        86        93
         2        12        86        93        94
         2        11        18        19        87
         2        10        11        18        87
         2        10        11        87        95
         2        11        19        86        87
         2        11        86        87        94
         2        11        87        94        95
         2        10        17        18        88
         2         9        10        17        88
         2         9        10        88        96
         2        10        18        87        88
         2        10        87        88        95
         2        10        88        95        96
         2         9        16        17        89
         2         8         9        16        89
         2         8         9        89        97
         2         9        17        88        89
         2         9        88        89        96
         2         9        89        96        97
         2         8        15        16        90
         2         7         8        15        90
         2         7         8        90        98
         2         8        16        89        90
         2         8        89        90        97
         2         8        90        97        98
         2         7        14        15        83
         2         6         7        14        83
         2         6         7        83        91
         2         7        15        83        90
         2         7        83        90        98
         2         7        83        91        98
         2         1         6        13        92
         2         1         2        13        92
         2         1         2        36        92
         2         1         6        91        92
         2         1        35        91        92
         2         1        35        36        92
         2         2        12        13        93
         2         2         3        12        93
         2         2         3        37        93
         2         2        13        92        93
         2         2        36        92        93
         2         2        36        37        93
         2         3        11        12        94
         2         3         4        11        94
         2         3         4        38        94
         2         3        12        93        94
         2         3        37        93        94
         2         3        37        38        94
         2         4        10        11        95
         2         4         5        10        95
         2         4         5        39        95
         2         4        11        94        95
         2         4        38        94        95
         2         4        38        39        95
         2         5         9        10        96
         2         4         5         9        96
         2         4         5        40        96
         2         5        10        95        96
         2         5        39        95        96
         2         5        39        40        96
         2         4         8         9        97
         2         3         4         8        97
         2         3         4        41        97
         2         4         9        96        97
         2         4        40        96        97
         2         4        40        41        97
         2         3         7         8        98
         2         2         3         7        98
         2         2         3        42        98
         2         3         8        97        98
         2         3        41        97        98
         2         3        41        42        98
         2         2         6         7        91
         2         1         2         6        91
         2         1         2        35        91
         2         2         7        91        98
         2         2        42        91        98
         2         2        35        42        91
         2        35        36        43       100
         2        36        43        44       100
         2        43        44       100       105
         2        35        43        99       100
         2        43        99       100       104
         2        43       100       104       105
         2        36        37        44       101
         2        37        44        45       101