       N       E                     dE             d eps       ncg     rms          rms(c)
DAV:   1     0.181767856483E+04    0.18177E+04   -0.86939E+04 71960   0.119E+03
DAV:   2     0.239990509701E+02   -0.17937E+04   -0.16786E+04 73936   0.372E+02
DAV:   3    -0.210058378161E+03   -0.23406E+03   -0.22561E+03 97576   0.136E+02
DAV:   4    -0.221278933063E+03   -0.11221E+02   -0.11103E+02 96376   0.306E+01
DAV:   5    -0.221940955050E+03   -0.66202E+00   -0.66126E+00123680   0.555E+00    0.127E+02
RMM:   6    -0.189891684324E+03    0.32049E+02   -0.18896E+02 77796   0.340E+01    0.534E+01
RMM:   7    -0.188217514438E+03    0.16742E+01   -0.19436E+01 77346   0.121E+01    0.367E+01
RMM:   8    -0.197883944733E+03   -0.96664E+01   -0.76477E+00 83549   0.768E+00    0.457E+01
RMM:   9    -0.186410858187E+03    0.11473E+02   -0.36715E+00 80401   0.541E+00    0.116E+01
RMM:  10    -0.186917560788E+03   -0.50670E+00   -0.14269E+00 88596   0.286E+00    0.138E+01
RMM:  11    -0.186378317790E+03    0.53924E+00   -0.33258E-01 87787   0.148E+00    0.396E+00
RMM:  12    -0.186498411772E+03   -0.12009E+00   -0.11523E-01 91037   0.809E-01    0.269E+00
RMM:  13    -0.186727144349E+03   -0.22873E+00   -0.98419E-02 86266   0.715E-01    0.187E+00
RMM:  14    -0.187024985784E+03   -0.29784E+00   -0.21697E-01 82354   0.100E+00    0.231E+00
RMM:  15    -0.187059578803E+03   -0.34593E-01   -0.41672E-02 87175   0.422E-01    0.105E+00
RMM:  16    -0.187104358178E+03   -0.44779E-01   -0.42617E-02 84065   0.428E-01    0.102E+00
RMM:  17    -0.187105431944E+03   -0.10738E-02   -0.56441E-03 91205   0.158E-01    0.619E-01
RMM:  18    -0.187107025729E+03   -0.15938E-02   -0.28114E-03 92151   0.118E-01    0.449E-01
RMM:  19    -0.187108914956E+03   -0.18892E-02   -0.25275E-03 87033   0.117E-01    0.384E-01
RMM:  20    -0.187109634886E+03   -0.71993E-03   -0.13562E-03 85750   0.897E-02    0.383E-01
RMM:  21    -0.187109527200E+03    0.10769E-03   -0.60633E-04 86692   0.588E-02    0.252E-01
RMM:  22    -0.187109456566E+03    0.70634E-04   -0.10460E-04 83662   0.252E-02    0.165E-01
RMM:  23    -0.187109424203E+03    0.32362E-04   -0.44971E-05 72936   0.167E-02    0.126E-01
RMM:  24    -0.187109385276E+03    0.38928E-04   -0.41388E-05 70411   0.175E-02    0.126E-01
RMM:  25    -0.187109308355E+03    0.76921E-04   -0.45500E-05 72603   0.185E-02    0.903E-02
RMM:  26    -0.187109249755E+03    0.58600E-04   -0.14421E-05 55614   0.111E-02    0.886E-02
RMM:  27    -0.187109306073E+03   -0.56318E-04   -0.23848E-05 59757   0.149E-02    0.826E-02
RMM:  28    -0.187109291146E+03    0.14927E-04   -0.17682E-05 55819   0.129E-02    0.318E-02
RMM:  29    -0.187109269381E+03    0.21766E-04   -0.63211E-06 50613   0.847E-03    0.255E-02
RMM:  30    -0.187109256958E+03    0.12423E-04   -0.41847E-06 48272   0.648E-03    0.173E-02
RMM:  31    -0.187109251352E+03    0.56057E-05   -0.19273E-06 44678   0.452E-03
   1 F= -.18710925E+03 E0= -.18710925E+03  d E =0.000000E+00  mag=    -0.0001
