SrIr2O4 prototype                       
           1
     5.340725   -0.001244    0.029651
    -0.001227    5.383454   -0.003262
     0.087479   -0.008451   15.267788
   Sr   Ir   O 
   4   8  16
Direct configuration=     1
   0.50597015  0.99607386  0.12625386
   0.99369828  0.50027914  0.37471860
   0.48887200  0.00060714  0.62479166
   0.01379912  0.49981484  0.87503563
   0.00026304  0.99988371  0.24886397
   0.01193946  0.99521434  0.99790163
   0.49978014  0.50014206  0.25113900
   0.51513165  0.49422166  0.00193226
   0.00082597  0.99999707  0.75137598
   0.98499860  0.00578874  0.49806646
   0.50719913  0.49997883  0.74850539
   0.48812278  0.50488603  0.50209911
   0.23784172  0.25418406  0.50162814
   0.75224452  0.25220682  0.24956419
   0.76518933  0.24647227  0.00032114
   0.76190131  0.74658445  0.00120631
   0.24812017  0.74808914  0.25009108
   0.74822642  0.75197212  0.25039130
   0.23666071  0.75531519  0.50002766
   0.25223764  0.24798266  0.24999320
   0.26492954  0.24370075  0.99846561
   0.75648697  0.25224272  0.74911624
   0.73801968  0.25663018  0.50008089
   0.73680938  0.75526663  0.49824089
   0.25297674  0.74899631  0.75046122
   0.75257293  0.75159555  0.74918819
   0.26248487  0.74364406  0.99971137
   0.25596546  0.24822968  0.75082901
